VARIABLES="XP","YP","ZP","P","U","V","W","TF","TS","LTNE" ,"SGENF","SGENS","SGEN","RATIO"
ZONE T="Zone 001" I=    42 J=    12 K=     3      F=POINT
   0.00000E+00   0.00000E+00   0.00000E+00   3.53052E-02   1.90000E-02   0.00000E+00   0.00000E+00   1.49000E+02   0.00000E+00   0.00000E+00   0.00000E+00   0.00000E+00   0.00000E+00   0.00000E+00
   5.00000E-03   0.00000E+00   0.00000E+00   3.52926E-02   0.00000E+00   0.00000E+00   0.00000E+00   1.49031E+02   0.00000E+00   0.00000E+00   0.00000E+00   0.00000E+00   0.00000E+00   0.00000E+00
   1.50000E-02   0.00000E+00   0.00000E+00   3.52674E-02   0.00000E+00   0.00000E+00   0.00000E+00   1.49102E+02   0.00000E+00   0.00000E+00   0.00000E+00   0.00000E+00   0.00000E+00   0.00000E+00
   2.50000E-02   0.00000E+00   0.00000E+00   3.52404E-02   0.00000E+00   0.00000E+00   0.00000E+00   1.49210E+02   0.00000E+00   0.00000E+00   0.00000E+00   0.00000E+00   0.00000E+00   0.00000E+00
   3.50000E-02   0.00000E+00   0.00000E+00   3.52127E-02   0.00000E+00   0.00000E+00   0.00000E+00   1.49354E+02   0.00000E+00   0.00000E+00   0.00000E+00   0.00000E+00   0.00000E+00   0.00000E+00
   4.50000E-02   0.00000E+00   0.00000E+00   3.51849E-02   0.00000E+00   0.00000E+00   0.00000E+00   1.49536E+02   0.00000E+00   0.00000E+00   0.00000E+00   0.00000E+00   0.00000E+00   0.00000E+00
   5.50000E-02   0.00000E+00   0.00000E+00   3.51568E-02   0.00000E+00   0.00000E+00   0.00000E+00   1.49756E+02   0.00000E+00   0.00000E+00   0.00000E+00   0.00000E+00   0.00000E+00   0.00000E+00
   6.50000E-02   0.00000E+00   0.00000E+00   3.51285E-02   0.00000E+00   0.00000E+00   0.00000E+00   1.50015E+02   0.00000E+00   0.00000E+00   0.00000E+00   0.00000E+00   0.00000E+00   0.00000E+00
   7.50000E-02   0.00000E+00   0.00000E+00   3.51040E-02   0.00000E+00   0.00000E+00   0.00000E+00   1.50310E+02   0.00000E+00   0.00000E+00   0.00000E+00   0.00000E+00   0.00000E+00   0.00000E+00
   8.50000E-02   0.00000E+00   0.00000E+00   3.51194E-02   0.00000E+00   0.00000E+00   0.00000E+00   1.50722E+02   0.00000E+00   0.00000E+00   0.00000E+00   0.00000E+00   0.00000E+00   0.00000E+00
   9.50000E-02   0.00000E+00   0.00000E+00   3.50377E-02   0.00000E+00   0.00000E+00   0.00000E+00   1.54183E+02   0.00000E+00   0.00000E+00   0.00000E+00   0.00000E+00   0.00000E+00   0.00000E+00
   1.01250E-01   0.00000E+00   0.00000E+00   3.23763E-02   0.00000E+00   0.00000E+00   0.00000E+00   1.49000E+02   1.49000E+02   0.00000E+00   0.00000E+00   0.00000E+00   0.00000E+00   0.00000E+00
   1.03750E-01   0.00000E+00   0.00000E+00   3.14975E-02   0.00000E+00   0.00000E+00   0.00000E+00   1.49000E+02   1.49000E+02   0.00000E+00   0.00000E+00   0.00000E+00   0.00000E+00   0.00000E+00
   1.06250E-01   0.00000E+00   0.00000E+00   2.97050E-02   0.00000E+00   0.00000E+00   0.00000E+00   1.49000E+02   1.49000E+02   0.00000E+00   0.00000E+00   0.00000E+00   0.00000E+00   0.00000E+00
   1.08750E-01   0.00000E+00   0.00000E+00   2.77396E-02   0.00000E+00   0.00000E+00   0.00000E+00   1.49000E+02   1.49000E+02   0.00000E+00   0.00000E+00   0.00000E+00   0.00000E+00   0.00000E+00
   1.11250E-01   0.00000E+00   0.00000E+00   2.59041E-02   0.00000E+00   0.00000E+00   0.00000E+00   1.49000E+02   1.49000E+02   0.00000E+00   0.00000E+00   0.00000E+00   0.00000E+00   0.00000E+00
   1.13750E-01   0.00000E+00   0.00000E+00   2.41432E-02   0.00000E+00   0.00000E+00   0.00000E+00   1.49000E+02   1.49000E+02   0.00000E+00   0.00000E+00   0.00000E+00   0.00000E+00   0.00000E+00
   1.16250E-01   0.00000E+00   0.00000E+00   2.23899E-02   0.00000E+00   0.00000E+00   0.00000E+00   1.49000E+02   1.49000E+02   0.00000E+00   0.00000E+00   0.00000E+00   0.00000E+00   0.00000E+00
   1.18750E-01   0.00000E+00   0.00000E+00   2.06330E-02   0.00000E+00   0.00000E+00   0.00000E+00   1.49000E+02   1.49000E+02   0.00000E+00   0.00000E+00   0.00000E+00   0.00000E+00   0.00000E+00
   1.21250E-01   0.00000E+00   0.00000E+00   1.88777E-02   0.00000E+00   0.00000E+00   0.00000E+00   1.49000E+02   1.49000E+02   0.00000E+00   0.00000E+00   0.00000E+00   0.00000E+00   0.00000E+00
   1.23750E-01   0.00000E+00   0.00000E+00   1.71257E-02   0.00000E+00   0.00000E+00   0.00000E+00   1.49000E+02   1.49000E+02   0.00000E+00   0.00000E+00   0.00000E+00   0.00000E+00   0.00000E+00
   1.26250E-01   0.00000E+00   0.00000E+00   1.53757E-02   0.00000E+00   0.00000E+00   0.00000E+00   1.49000E+02   1.49000E+02   0.00000E+00   0.00000E+00   0.00000E+00   0.00000E+00   0.00000E+00
   1.28750E-01   0.00000E+00   0.00000E+00   1.36267E-02   0.00000E+00   0.00000E+00   0.00000E+00   1.49000E+02   1.49000E+02   0.00000E+00   0.00000E+00   0.00000E+00   0.00000E+00   0.00000E+00
   1.31250E-01   0.00000E+00   0.00000E+00   1.18782E-02   0.00000E+00   0.00000E+00   0.00000E+00   1.49000E+02   1.49000E+02   0.00000E+00   0.00000E+00   0.00000E+00   0.00000E+00   0.00000E+00
   1.33750E-01   0.00000E+00   0.00000E+00   1.01306E-02   0.00000E+00   0.00000E+00   0.00000E+00   1.49000E+02   1.49000E+02   0.00000E+00   0.00000E+00   0.00000E+00   0.00000E+00   0.00000E+00
   1.36250E-01   0.00000E+00   0.00000E+00   8.38395E-03   0.00000E+00   0.00000E+00   0.00000E+00   1.49000E+02   1.49000E+02   0.00000E+00   0.00000E+00   0.00000E+00   0.00000E+00   0.00000E+00
   1.38750E-01   0.00000E+00   0.00000E+00   6.63930E-03   0.00000E+00   0.00000E+00   0.00000E+00   1.49000E+02   1.49000E+02   0.00000E+00   0.00000E+00   0.00000E+00   0.00000E+00   0.00000E+00
   1.41250E-01   0.00000E+00   0.00000E+00   4.89886E-03   0.00000E+00   0.00000E+00   0.00000E+00   1.49000E+02   1.49000E+02   0.00000E+00   0.00000E+00   0.00000E+00   0.00000E+00   0.00000E+00
   1.43750E-01   0.00000E+00   0.00000E+00   3.16822E-03   0.00000E+00   0.00000E+00   0.00000E+00   1.49000E+02   1.49000E+02   0.00000E+00   0.00000E+00   0.00000E+00   0.00000E+00   0.00000E+00
   1.46250E-01   0.00000E+00   0.00000E+00   1.46385E-03   0.00000E+00   0.00000E+00   0.00000E+00   1.49000E+02   1.49000E+02   0.00000E+00   0.00000E+00   0.00000E+00   0.00000E+00   0.00000E+00
   1.48750E-01   0.00000E+00   0.00000E+00  -1.24317E-04   0.00000E+00   0.00000E+00   0.00000E+00   1.49000E+02   1.49000E+02   0.00000E+00   0.00000E+00   0.00000E+00   0.00000E+00   0.00000E+00
   1.55000E-01   0.00000E+00   0.00000E+00   9.91673E-04   0.00000E+00   0.00000E+00   0.00000E+00   1.59790E+02   0.00000E+00   0.00000E+00   0.00000E+00   0.00000E+00   0.00000E+00   0.00000E+00
   1.65000E-01   0.00000E+00   0.00000E+00   8.92292E-04   0.00000E+00   0.00000E+00   0.00000E+00   1.60217E+02   0.00000E+00   0.00000E+00   0.00000E+00   0.00000E+00   0.00000E+00   0.00000E+00
   1.75000E-01   0.00000E+00   0.00000E+00   7.79003E-04   0.00000E+00   0.00000E+00   0.00000E+00   1.60728E+02   0.00000E+00   0.00000E+00   0.00000E+00   0.00000E+00   0.00000E+00   0.00000E+00
   1.85000E-01   0.00000E+00   0.00000E+00   6.61237E-04   0.00000E+00   0.00000E+00   0.00000E+00   1.61310E+02   0.00000E+00   0.00000E+00   0.00000E+00   0.00000E+00   0.00000E+00   0.00000E+00
   1.95000E-01   0.00000E+00   0.00000E+00   5.45121E-04   0.00000E+00   0.00000E+00   0.00000E+00   1.61956E+02   0.00000E+00   0.00000E+00   0.00000E+00   0.00000E+00   0.00000E+00   0.00000E+00
   2.05000E-01   0.00000E+00   0.00000E+00   4.32328E-04   0.00000E+00   0.00000E+00   0.00000E+00   1.62660E+02   0.00000E+00   0.00000E+00   0.00000E+00   0.00000E+00   0.00000E+00   0.00000E+00
   2.15000E-01   0.00000E+00   0.00000E+00   3.23888E-04   0.00000E+00   0.00000E+00   0.00000E+00   1.63416E+02   0.00000E+00   0.00000E+00   0.00000E+00   0.00000E+00   0.00000E+00   0.00000E+00
   2.25000E-01   0.00000E+00   0.00000E+00   2.20666E-04   0.00000E+00   0.00000E+00   0.00000E+00   1.64219E+02   0.00000E+00   0.00000E+00   0.00000E+00   0.00000E+00   0.00000E+00   0.00000E+00
   2.35000E-01   0.00000E+00   0.00000E+00   1.23253E-04   0.00000E+00   0.00000E+00   0.00000E+00   1.65064E+02   0.00000E+00   0.00000E+00   0.00000E+00   0.00000E+00   0.00000E+00   0.00000E+00
   2.45000E-01   0.00000E+00   0.00000E+00   3.34123E-05   0.00000E+00   0.00000E+00   0.00000E+00   1.65909E+02   0.00000E+00   0.00000E+00   0.00000E+00   0.00000E+00   0.00000E+00   0.00000E+00
   2.50000E-01   0.00000E+00   0.00000E+00   3.34123E-05   0.00000E+00   0.00000E+00   0.00000E+00   1.65909E+02   0.00000E+00   0.00000E+00   0.00000E+00   0.00000E+00   0.00000E+00   0.00000E+00
   0.00000E+00   1.00000E-03   0.00000E+00   3.53052E-02   1.90000E-02   0.00000E+00   0.00000E+00   1.49000E+02   0.00000E+00   0.00000E+00   0.00000E+00   0.00000E+00   0.00000E+00   0.00000E+00
   5.00000E-03   1.00000E-03   0.00000E+00   3.52926E-02   0.00000E+00   0.00000E+00   0.00000E+00   1.49031E+02   0.00000E+00   0.00000E+00   0.00000E+00   0.00000E+00   0.00000E+00   0.00000E+00
   1.50000E-02   1.00000E-03   0.00000E+00   3.52674E-02   0.00000E+00   0.00000E+00   0.00000E+00   1.49102E+02   0.00000E+00   0.00000E+00   0.00000E+00   0.00000E+00   0.00000E+00   0.00000E+00
   2.50000E-02   1.00000E-03   0.00000E+00   3.52404E-02   0.00000E+00   0.00000E+00   0.00000E+00   1.49210E+02   0.00000E+00   0.00000E+00   0.00000E+00   0.00000E+00   0.00000E+00   0.00000E+00
   3.50000E-02   1.00000E-03   0.00000E+00   3.52127E-02   0.00000E+00   0.00000E+00   0.00000E+00   1.49354E+02   0.00000E+00   0.00000E+00   0.00000E+00   0.00000E+00   0.00000E+00   0.00000E+00
   4.50000E-02   1.00000E-03   0.00000E+00   3.51849E-02   0.00000E+00   0.00000E+00   0.00000E+00   1.49536E+02   0.00000E+00   0.00000E+00   0.00000E+00   0.00000E+00   0.00000E+00   0.00000E+00
   5.50000E-02   1.00000E-03   0.00000E+00   3.51568E-02   0.00000E+00   0.00000E+00   0.00000E+00   1.49756E+02   0.00000E+00   0.00000E+00   0.00000E+00   0.00000E+00   0.00000E+00   0.00000E+00
   6.50000E-02   1.00000E-03   0.00000E+00   3.51285E-02   0.00000E+00   0.00000E+00   0.00000E+00   1.50015E+02   0.00000E+00   0.00000E+00   0.00000E+00   0.00000E+00   0.00000E+00   0.00000E+00
   7.50000E-02   1.00000E-03   0.00000E+00   3.51040E-02   0.00000E+00   0.00000E+00   0.00000E+00   1.50310E+02   0.00000E+00   0.00000E+00   0.00000E+00   0.00000E+00   0.00000E+00   0.00000E+00
   8.50000E-02   1.00000E-03   0.00000E+00   3.51194E-02   0.00000E+00   0.00000E+00   0.00000E+00   1.50722E+02   0.00000E+00   0.00000E+00   0.00000E+00   0.00000E+00   0.00000E+00   0.00000E+00
   9.50000E-02   1.00000E-03   0.00000E+00   3.50377E-02   0.00000E+00   0.00000E+00   0.00000E+00   1.54183E+02   0.00000E+00   0.00000E+00   0.00000E+00   0.00000E+00   0.00000E+00   0.00000E+00
   1.01250E-01   1.00000E-03   0.00000E+00   3.23763E-02   0.00000E+00   0.00000E+00   0.00000E+00   1.49000E+02   1.49000E+02   0.00000E+00   0.00000E+00   0.00000E+00   0.00000E+00   0.00000E+00
   1.03750E-01   1.00000E-03   0.00000E+00   3.14975E-02   0.00000E+00   0.00000E+00   0.00000E+00   1.49000E+02   1.49000E+02   0.00000E+00   0.00000E+00   0.00000E+00   0.00000E+00   0.00000E+00
   1.06250E-01   1.00000E-03   0.00000E+00   2.97050E-02   0.00000E+00   0.00000E+00   0.00000E+00   1.49000E+02   1.49000E+02   0.00000E+00   0.00000E+00   0.00000E+00   0.00000E+00   0.00000E+00
   1.08750E-01   1.00000E-03   0.00000E+00   2.77396E-02   0.00000E+00   0.00000E+00   0.00000E+00   1.49000E+02   1.49000E+02   0.00000E+00   0.00000E+00   0.00000E+00   0.00000E+00   0.00000E+00
   1.11250E-01   1.00000E-03   0.00000E+00   2.59041E-02   0.00000E+00   0.00000E+00   0.00000E+00   1.49000E+02   1.49000E+02   0.00000E+00   0.00000E+00   0.00000E+00   0.00000E+00   0.00000E+00
   1.13750E-01   1.00000E-03   0.00000E+00   2.41432E-02   0.00000E+00   0.00000E+00   0.00000E+00   1.49000E+02   1.49000E+02   0.00000E+00   0.00000E+00   0.00000E+00   0.00000E+00   0.00000E+00
   1.16250E-01   1.00000E-03   0.00000E+00   2.23899E-02   0.00000E+00   0.00000E+00   0.00000E+00   1.49000E+02   1.49000E+02   0.00000E+00   0.00000E+00   0.00000E+00   0.00000E+00   0.00000E+00
   1.18750E-01   1.00000E-03   0.00000E+00   2.06330E-02   0.00000E+00   0.00000E+00   0.00000E+00   1.49000E+02   1.49000E+02   0.00000E+00   0.00000E+00   0.00000E+00   0.00000E+00   0.00000E+00
   1.21250E-01   1.00000E-03   0.00000E+00   1.88777E-02   0.00000E+00   0.00000E+00   0.00000E+00   1.49000E+02   1.49000E+02   0.00000E+00   0.00000E+00   0.00000E+00   0.00000E+00   0.00000E+00
   1.23750E-01   1.00000E-03   0.00000E+00   1.71257E-02   0.00000E+00   0.00000E+00   0.00000E+00   1.49000E+02   1.49000E+02   0.00000E+00   0.00000E+00   0.00000E+00   0.00000E+00   0.00000E+00
   1.26250E-01   1.00000E-03   0.00000E+00   1.53757E-02   0.00000E+00   0.00000E+00   0.00000E+00   1.49000E+02   1.49000E+02   0.00000E+00   0.00000E+00   0.00000E+00   0.00000E+00   0.00000E+00
   1.28750E-01   1.00000E-03   0.00000E+00   1.36267E-02   0.00000E+00   0.00000E+00   0.00000E+00   1.49000E+02   1.49000E+02   0.00000E+00   0.00000E+00   0.00000E+00   0.00000E+00   0.00000E+00
   1.31250E-01   1.00000E-03   0.00000E+00   1.18782E-02   0.00000E+00   0.00000E+00   0.00000E+00   1.49000E+02   1.49000E+02   0.00000E+00   0.00000E+00   0.00000E+00   0.00000E+00   0.00000E+00
   1.33750E-01   1.00000E-03   0.00000E+00   1.01306E-02   0.00000E+00   0.00000E+00   0.00000E+00   1.49000E+02   1.49000E+02   0.00000E+00   0.00000E+00   0.00000E+00   0.00000E+00   0.00000E+00
   1.36250E-01   1.00000E-03   0.00000E+00   8.38395E-03   0.00000E+00   0.00000E+00   0.00000E+00   1.49000E+02   1.49000E+02   0.00000E+00   0.00000E+00   0.00000E+00   0.00000E+00   0.00000E+00
   1.38750E-01   1.00000E-03   0.00000E+00   6.63930E-03   0.00000E+00   0.00000E+00   0.00000E+00   1.49000E+02   1.49000E+02   0.00000E+00   0.00000E+00   0.00000E+00   0.00000E+00   0.00000E+00
   1.41250E-01   1.00000E-03   0.00000E+00   4.89886E-03   0.00000E+00   0.00000E+00   0.00000E+00   1.49000E+02   1.49000E+02   0.00000E+00   0.00000E+00   0.00000E+00   0.00000E+00   0.00000E+00
   1.43750E-01   1.00000E-03   0.00000E+00   3.16822E-03   0.00000E+00   0.00000E+00   0.00000E+00   1.49000E+02   1.49000E+02   0.00000E+00   0.00000E+00   0.00000E+00   0.00000E+00   0.00000E+00
   1.46250E-01   1.00000E-03   0.00000E+00   1.46385E-03   0.00000E+00   0.00000E+00   0.00000E+00   1.49000E+02   1.49000E+02   0.00000E+00   0.00000E+00   0.00000E+00   0.00000E+00   0.00000E+00
   1.48750E-01   1.00000E-03   0.00000E+00  -1.24317E-04   0.00000E+00   0.00000E+00   0.00000E+00   1.49000E+02   1.49000E+02   0.00000E+00   0.00000E+00   0.00000E+00   0.00000E+00   0.00000E+00
   1.55000E-01   1.00000E-03   0.00000E+00   9.91673E-04   0.00000E+00   0.00000E+00   0.00000E+00   1.59790E+02   0.00000E+00   0.00000E+00   0.00000E+00   0.00000E+00   0.00000E+00   0.00000E+00
   1.65000E-01   1.00000E-03   0.00000E+00   8.92292E-04   0.00000E+00   0.00000E+00   0.00000E+00   1.60217E+02   0.00000E+00   0.00000E+00   0.00000E+00   0.00000E+00   0.00000E+00   0.00000E+00
   1.75000E-01   1.00000E-03   0.00000E+00   7.79003E-04   0.00000E+00   0.00000E+00   0.00000E+00   1.60728E+02   0.00000E+00   0.00000E+00   0.00000E+00   0.00000E+00   0.00000E+00   0.00000E+00
   1.85000E-01   1.00000E-03   0.00000E+00   6.61237E-04   0.00000E+00   0.00000E+00   0.00000E+00   1.61310E+02   0.00000E+00   0.00000E+00   0.00000E+00   0.00000E+00   0.00000E+00   0.00000E+00
   1.95000E-01   1.00000E-03   0.00000E+00   5.45121E-04   0.00000E+00   0.00000E+00   0.00000E+00   1.61956E+02   0.00000E+00   0.00000E+00   0.00000E+00   0.00000E+00   0.00000E+00   0.00000E+00
   2.05000E-01   1.00000E-03   0.00000E+00   4.32328E-04   0.00000E+00   0.00000E+00   0.00000E+00   1.62660E+02   0.00000E+00   0.00000E+00   0.00000E+00   0.00000E+00   0.00000E+00   0.00000E+00
   2.15000E-01   1.00000E-03   0.00000E+00   3.23888E-04   0.00000E+00   0.00000E+00   0.00000E+00   1.63416E+02   0.00000E+00   0.00000E+00   0.00000E+00   0.00000E+00   0.00000E+00   0.00000E+00
   2.25000E-01   1.00000E-03   0.00000E+00   2.20666E-04   0.00000E+00   0.00000E+00   0.00000E+00   1.64219E+02   0.00000E+00   0.00000E+00   0.00000E+00   0.00000E+00   0.00000E+00   0.00000E+00
   2.35000E-01   1.00000E-03   0.00000E+00   1.23253E-04   0.00000E+00   0.00000E+00   0.00000E+00   1.65064E+02   0.00000E+00   0.00000E+00   0.00000E+00   0.00000E+00   0.00000E+00   0.00000E+00
   2.45000E-01   1.00000E-03   0.00000E+00   3.34123E-05   0.00000E+00   0.00000E+00   0.00000E+00   1.65909E+02   0.00000E+00   0.00000E+00   0.00000E+00   0.00000E+00   0.00000E+00   0.00000E+00
   2.50000E-01   1.00000E-03   0.00000E+00   3.34123E-05   0.00000E+00   0.00000E+00   0.00000E+00   1.65909E+02   0.00000E+00   0.00000E+00   0.00000E+00   0.00000E+00   0.00000E+00   0.00000E+00
   0.00000E+00   3.00000E-03   0.00000E+00   3.53056E-02   5.09999E-02   0.00000E+00   0.00000E+00   1.49000E+02   0.00000E+00   0.00000E+00   0.00000E+00   0.00000E+00   0.00000E+00   0.00000E+00
   5.00000E-03   3.00000E-03   0.00000E+00   3.52929E-02   0.00000E+00   0.00000E+00   0.00000E+00   1.49019E+02   0.00000E+00   0.00000E+00   0.00000E+00   0.00000E+00   0.00000E+00   0.00000E+00
   1.50000E-02   3.00000E-03   0.00000E+00   3.52673E-02   0.00000E+00   0.00000E+00   0.00000E+00   1.49069E+02   0.00000E+00   0.00000E+00   0.00000E+00   0.00000E+00   0.00000E+00   0.00000E+00
   2.50000E-02   3.00000E-03   0.00000E+00   3.52404E-02   0.00000E+00   0.00000E+00   0.00000E+00   1.49150E+02   0.00000E+00   0.00000E+00   0.00000E+00   0.00000E+00   0.00000E+00   0.00000E+00
   3.50000E-02   3.00000E-03   0.00000E+00   3.52127E-02   0.00000E+00   0.00000E+00   0.00000E+00   1.49266E+02   0.00000E+00   0.00000E+00   0.00000E+00   0.00000E+00   0.00000E+00   0.00000E+00
   4.50000E-02   3.00000E-03   0.00000E+00   3.51848E-02   0.00000E+00   0.00000E+00   0.00000E+00   1.49417E+02   0.00000E+00   0.00000E+00   0.00000E+00   0.00000E+00   0.00000E+00   0.00000E+00
   5.50000E-02   3.00000E-03   0.00000E+00   3.51567E-02   0.00000E+00   0.00000E+00   0.00000E+00   1.49604E+02   0.00000E+00   0.00000E+00   0.00000E+00   0.00000E+00   0.00000E+00   0.00000E+00
   6.50000E-02   3.00000E-03   0.00000E+00   3.51285E-02   0.00000E+00   0.00000E+00   0.00000E+00   1.49828E+02   0.00000E+00   0.00000E+00   0.00000E+00   0.00000E+00   0.00000E+00   0.00000E+00
   7.50000E-02   3.00000E-03   0.00000E+00   3.51047E-02   0.00000E+00   0.00000E+00   0.00000E+00   1.50087E+02   0.00000E+00   0.00000E+00   0.00000E+00   0.00000E+00   0.00000E+00   0.00000E+00
   8.50000E-02   3.00000E-03   0.00000E+00   3.51255E-02   0.00000E+00   0.00000E+00   0.00000E+00   1.50421E+02   0.00000E+00   0.00000E+00   0.00000E+00   0.00000E+00   0.00000E+00   0.00000E+00
   9.50000E-02   3.00000E-03   0.00000E+00   3.51311E-02   0.00000E+00   0.00000E+00   0.00000E+00   1.52555E+02   0.00000E+00   0.00000E+00   0.00000E+00   0.00000E+00   0.00000E+00   0.00000E+00
   1.01250E-01   3.00000E-03   0.00000E+00   3.25003E-02   0.00000E+00   0.00000E+00   0.00000E+00   1.49000E+02   1.49000E+02   0.00000E+00   0.00000E+00   0.00000E+00   0.00000E+00   0.00000E+00
   1.03750E-01   3.00000E-03   0.00000E+00   3.11463E-02   0.00000E+00   0.00000E+00   0.00000E+00   1.49000E+02   1.49000E+02   0.00000E+00   0.00000E+00   0.00000E+00   0.00000E+00   0.00000E+00
   1.06250E-01   3.00000E-03   0.00000E+00   2.94696E-02   0.00000E+00   0.00000E+00   0.00000E+00   1.49000E+02   1.49000E+02   0.00000E+00   0.00000E+00   0.00000E+00   0.00000E+00   0.00000E+00
   1.08750E-01   3.00000E-03   0.00000E+00   2.76715E-02   0.00000E+00   0.00000E+00   0.00000E+00   1.49000E+02   1.49000E+02   0.00000E+00   0.00000E+00   0.00000E+00   0.00000E+00   0.00000E+00
   1.11250E-01   3.00000E-03   0.00000E+00   2.58893E-02   0.00000E+00   0.00000E+00   0.00000E+00   1.49000E+02   1.49000E+02   0.00000E+00   0.00000E+00   0.00000E+00   0.00000E+00   0.00000E+00
   1.13750E-01   3.00000E-03   0.00000E+00   2.41318E-02   0.00000E+00   0.00000E+00   0.00000E+00   1.49000E+02   1.49000E+02   0.00000E+00   0.00000E+00   0.00000E+00   0.00000E+00   0.00000E+00
   1.16250E-01   3.00000E-03   0.00000E+00   2.23796E-02   0.00000E+00   0.00000E+00   0.00000E+00   1.49000E+02   1.49000E+02   0.00000E+00   0.00000E+00   0.00000E+00   0.00000E+00   0.00000E+00
   1.18750E-01   3.00000E-03   0.00000E+00   2.06266E-02   0.00000E+00   0.00000E+00   0.00000E+00   1.49000E+02   1.49000E+02   0.00000E+00   0.00000E+00   0.00000E+00   0.00000E+00   0.00000E+00
   1.21250E-01   3.00000E-03   0.00000E+00   1.88745E-02   0.00000E+00   0.00000E+00   0.00000E+00   1.49000E+02   1.49000E+02   0.00000E+00   0.00000E+00   0.00000E+00   0.00000E+00   0.00000E+00
   1.23750E-01   3.00000E-03   0.00000E+00   1.71239E-02   0.00000E+00   0.00000E+00   0.00000E+00   1.49000E+02   1.49000E+02   0.00000E+00   0.00000E+00   0.00000E+00   0.00000E+00   0.00000E+00
   1.26250E-01   3.00000E-03   0.00000E+00   1.53745E-02   0.00000E+00   0.00000E+00   0.00000E+00   1.49000E+02   1.49000E+02   0.00000E+00   0.00000E+00   0.00000E+00   0.00000E+00   0.00000E+00
   1.28750E-01   3.00000E-03   0.00000E+00   1.36258E-02   0.00000E+00   0.00000E+00   0.00000E+00   1.49000E+02   1.49000E+02   0.00000E+00   0.00000E+00   0.00000E+00   0.00000E+00   0.00000E+00
   1.31250E-01   3.00000E-03   0.00000E+00   1.18776E-02   0.00000E+00   0.00000E+00   0.00000E+00   1.49000E+02   1.49000E+02   0.00000E+00   0.00000E+00   0.00000E+00   0.00000E+00   0.00000E+00
   1.33750E-01   3.00000E-03   0.00000E+00   1.01298E-02   0.00000E+00   0.00000E+00   0.00000E+00   1.49000E+02   1.49000E+02   0.00000E+00   0.00000E+00   0.00000E+00   0.00000E+00   0.00000E+00
   1.36250E-01   3.00000E-03   0.00000E+00   8.38281E-03   0.00000E+00   0.00000E+00   0.00000E+00   1.49000E+02   1.49000E+02   0.00000E+00   0.00000E+00   0.00000E+00   0.00000E+00   0.00000E+00
   1.38750E-01   3.00000E-03   0.00000E+00   6.63698E-03   0.00000E+00   0.00000E+00   0.00000E+00   1.49000E+02   1.49000E+02   0.00000E+00   0.00000E+00   0.00000E+00   0.00000E+00   0.00000E+00
   1.41250E-01   3.00000E-03   0.00000E+00   4.89347E-03   0.00000E+00   0.00000E+00   0.00000E+00   1.49000E+02   1.49000E+02   0.00000E+00   0.00000E+00   0.00000E+00   0.00000E+00   0.00000E+00
   1.43750E-01   3.00000E-03   0.00000E+00   3.15432E-03   0.00000E+00   0.00000E+00   0.00000E+00   1.49000E+02   1.49000E+02   0.00000E+00   0.00000E+00   0.00000E+00   0.00000E+00   0.00000E+00
   1.46250E-01   3.00000E-03   0.00000E+00   1.42157E-03   0.00000E+00   0.00000E+00   0.00000E+00   1.49000E+02   1.49000E+02   0.00000E+00   0.00000E+00   0.00000E+00   0.00000E+00   0.00000E+00
   1.48750E-01   3.00000E-03   0.00000E+00  -3.02764E-04   0.00000E+00   0.00000E+00   0.00000E+00   1.49000E+02   1.49000E+02   0.00000E+00   0.00000E+00   0.00000E+00   0.00000E+00   0.00000E+00
   1.55000E-01   3.00000E-03   0.00000E+00   1.00600E-03   0.00000E+00   0.00000E+00   0.00000E+00   1.59604E+02   0.00000E+00   0.00000E+00   0.00000E+00   0.00000E+00   0.00000E+00   0.00000E+00
   1.65000E-01   3.00000E-03   0.00000E+00   8.96138E-04   0.00000E+00   0.00000E+00   0.00000E+00   1.60070E+02   0.00000E+00   0.00000E+00   0.00000E+00   0.00000E+00   0.00000E+00   0.00000E+00
   1.75000E-01   3.00000E-03   0.00000E+00   7.79609E-04   0.00000E+00   0.00000E+00   0.00000E+00   1.60576E+02   0.00000E+00   0.00000E+00   0.00000E+00   0.00000E+00   0.00000E+00   0.00000E+00
   1.85000E-01   3.00000E-03   0.00000E+00   6.61656E-04   0.00000E+00   0.00000E+00   0.00000E+00   1.61132E+02   0.00000E+00   0.00000E+00   0.00000E+00   0.00000E+00   0.00000E+00   0.00000E+00
   1.95000E-01   3.00000E-03   0.00000E+00   5.45498E-04   0.00000E+00   0.00000E+00   0.00000E+00   1.61739E+02   0.00000E+00   0.00000E+00   0.00000E+00   0.00000E+00   0.00000E+00   0.00000E+00
   2.05000E-01   3.00000E-03   0.00000E+00   4.32676E-04   0.00000E+00   0.00000E+00   0.00000E+00   1.62397E+02   0.00000E+00   0.00000E+00   0.00000E+00   0.00000E+00   0.00000E+00   0.00000E+00
   2.15000E-01   3.00000E-03   0.00000E+00   3.24244E-04   0.00000E+00   0.00000E+00   0.00000E+00   1.63103E+02   0.00000E+00   0.00000E+00   0.00000E+00   0.00000E+00   0.00000E+00   0.00000E+00
   2.25000E-01   3.00000E-03   0.00000E+00   2.21045E-04   0.00000E+00   0.00000E+00   0.00000E+00   1.63856E+02   0.00000E+00   0.00000E+00   0.00000E+00   0.00000E+00   0.00000E+00   0.00000E+00
   2.35000E-01   3.00000E-03   0.00000E+00   1.23769E-04   0.00000E+00   0.00000E+00   0.00000E+00   1.64650E+02   0.00000E+00   0.00000E+00   0.00000E+00   0.00000E+00   0.00000E+00   0.00000E+00
   2.45000E-01   3.00000E-03   0.00000E+00   3.49925E-05   0.00000E+00   0.00000E+00   0.00000E+00   1.65453E+02   0.00000E+00   0.00000E+00   0.00000E+00   0.00000E+00   0.00000E+00   0.00000E+00
   2.50000E-01   3.00000E-03   0.00000E+00   3.49925E-05   0.00000E+00   0.00000E+00   0.00000E+00   1.65453E+02   0.00000E+00   0.00000E+00   0.00000E+00   0.00000E+00   0.00000E+00   0.00000E+00
   0.00000E+00   5.00000E-03   0.00000E+00   3.53064E-02   7.49999E-02   0.00000E+00   0.00000E+00   1.49000E+02   0.00000E+00   0.00000E+00   0.00000E+00   0.00000E+00   0.00000E+00   0.00000E+00
   5.00000E-03   5.00000E-03   0.00000E+00   3.52934E-02   0.00000E+00   0.00000E+00   0.00000E+00   1.49010E+02   0.00000E+00   0.00000E+00   0.00000E+00   0.00000E+00   0.00000E+00   0.00000E+00
   1.50000E-02   5.00000E-03   0.00000E+00   3.52672E-02   0.00000E+00   0.00000E+00   0.00000E+00   1.49039E+02   0.00000E+00   0.00000E+00   0.00000E+00   0.00000E+00   0.00000E+00   0.00000E+00
   2.50000E-02   5.00000E-03   0.00000E+00   3.52403E-02   0.00000E+00   0.00000E+00   0.00000E+00   1.49092E+02   0.00000E+00   0.00000E+00   0.00000E+00   0.00000E+00   0.00000E+00   0.00000E+00
   3.50000E-02   5.00000E-03   0.00000E+00   3.52127E-02   0.00000E+00   0.00000E+00   0.00000E+00   1.49174E+02   0.00000E+00   0.00000E+00   0.00000E+00   0.00000E+00   0.00000E+00   0.00000E+00
   4.50000E-02   5.00000E-03   0.00000E+00   3.51848E-02   0.00000E+00   0.00000E+00   0.00000E+00   1.49287E+02   0.00000E+00   0.00000E+00   0.00000E+00   0.00000E+00   0.00000E+00   0.00000E+00
   5.50000E-02   5.00000E-03   0.00000E+00   3.51567E-02   0.00000E+00   0.00000E+00   0.00000E+00   1.49432E+02   0.00000E+00   0.00000E+00   0.00000E+00   0.00000E+00   0.00000E+00   0.00000E+00
   6.50000E-02   5.00000E-03   0.00000E+00   3.51289E-02   0.00000E+00   0.00000E+00   0.00000E+00   1.49612E+02   0.00000E+00   0.00000E+00   0.00000E+00   0.00000E+00   0.00000E+00   0.00000E+00
   7.50000E-02   5.00000E-03   0.00000E+00   3.51088E-02   0.00000E+00   0.00000E+00   0.00000E+00   1.49826E+02   0.00000E+00   0.00000E+00   0.00000E+00   0.00000E+00   0.00000E+00   0.00000E+00
   8.50000E-02   5.00000E-03   0.00000E+00   3.51452E-02   0.00000E+00   0.00000E+00   0.00000E+00   1.50084E+02   0.00000E+00   0.00000E+00   0.00000E+00   0.00000E+00   0.00000E+00   0.00000E+00
   9.50000E-02   5.00000E-03   0.00000E+00   3.53075E-02   0.00000E+00   0.00000E+00   0.00000E+00   1.51154E+02   0.00000E+00   0.00000E+00   0.00000E+00   0.00000E+00   0.00000E+00   0.00000E+00
   1.01250E-01   5.00000E-03   0.00000E+00   3.28819E-02   0.00000E+00   0.00000E+00   0.00000E+00   1.49000E+02   1.49000E+02   0.00000E+00   0.00000E+00   0.00000E+00   0.00000E+00   0.00000E+00
   1.03750E-01   5.00000E-03   0.00000E+00   3.08706E-02   0.00000E+00   0.00000E+00   0.00000E+00   1.49000E+02   1.49000E+02   0.00000E+00   0.00000E+00   0.00000E+00   0.00000E+00   0.00000E+00
   1.06250E-01   5.00000E-03   0.00000E+00   2.91985E-02   0.00000E+00   0.00000E+00   0.00000E+00   1.49000E+02   1.49000E+02   0.00000E+00   0.00000E+00   0.00000E+00   0.00000E+00   0.00000E+00
   1.08750E-01   5.00000E-03   0.00000E+00   2.75505E-02   0.00000E+00   0.00000E+00   0.00000E+00   1.49000E+02   1.49000E+02   0.00000E+00   0.00000E+00   0.00000E+00   0.00000E+00   0.00000E+00
   1.11250E-01   5.00000E-03   0.00000E+00   2.58374E-02   0.00000E+00   0.00000E+00   0.00000E+00   1.49000E+02   1.49000E+02   0.00000E+00   0.00000E+00   0.00000E+00   0.00000E+00   0.00000E+00
   1.13750E-01   5.00000E-03   0.00000E+00   2.40945E-02   0.00000E+00   0.00000E+00   0.00000E+00   1.49000E+02   1.49000E+02   0.00000E+00   0.00000E+00   0.00000E+00   0.00000E+00   0.00000E+00
   1.16250E-01   5.00000E-03   0.00000E+00   2.23485E-02   0.00000E+00   0.00000E+00   0.00000E+00   1.49000E+02   1.49000E+02   0.00000E+00   0.00000E+00   0.00000E+00   0.00000E+00   0.00000E+00
   1.18750E-01   5.00000E-03   0.00000E+00   2.06037E-02   0.00000E+00   0.00000E+00   0.00000E+00   1.49000E+02   1.49000E+02   0.00000E+00   0.00000E+00   0.00000E+00   0.00000E+00   0.00000E+00
   1.21250E-01   5.00000E-03   0.00000E+00   1.88587E-02   0.00000E+00   0.00000E+00   0.00000E+00   1.49000E+02   1.49000E+02   0.00000E+00   0.00000E+00   0.00000E+00   0.00000E+00   0.00000E+00
   1.23750E-01   5.00000E-03   0.00000E+00   1.71129E-02   0.00000E+00   0.00000E+00   0.00000E+00   1.49000E+02   1.49000E+02   0.00000E+00   0.00000E+00   0.00000E+00   0.00000E+00   0.00000E+00
   1.26250E-01   5.00000E-03   0.00000E+00   1.53665E-02   0.00000E+00   0.00000E+00   0.00000E+00   1.49000E+02   1.49000E+02   0.00000E+00   0.00000E+00   0.00000E+00   0.00000E+00   0.00000E+00
   1.28750E-01   5.00000E-03   0.00000E+00   1.36198E-02   0.00000E+00   0.00000E+00   0.00000E+00   1.49000E+02   1.49000E+02   0.00000E+00   0.00000E+00   0.00000E+00   0.00000E+00   0.00000E+00
   1.31250E-01   5.00000E-03   0.00000E+00   1.18729E-02   0.00000E+00   0.00000E+00   0.00000E+00   1.49000E+02   1.49000E+02   0.00000E+00   0.00000E+00   0.00000E+00   0.00000E+00   0.00000E+00
   1.33750E-01   5.00000E-03   0.00000E+00   1.01259E-02   0.00000E+00   0.00000E+00   0.00000E+00   1.49000E+02   1.49000E+02   0.00000E+00   0.00000E+00   0.00000E+00   0.00000E+00   0.00000E+00