VARIABLES="XP","YP","ZP","P","U","V","W","TF","TS","LTNE" ,"SGENF","SGENS","SGEN","RATIO"
ZONE T="Zone 001" I=    42 J=    12 K=     3      F=POINT
   0.00000E+00   0.00000E+00   0.00000E+00   3.52960E-02   1.90000E-02   0.00000E+00   0.00000E+00   1.49000E+02   0.00000E+00   0.00000E+00   0.00000E+00   0.00000E+00   0.00000E+00   0.00000E+00
   5.00000E-03   0.00000E+00   0.00000E+00   3.52870E-02   0.00000E+00   0.00000E+00   0.00000E+00   1.49534E+02   0.00000E+00   0.00000E+00   0.00000E+00   0.00000E+00   0.00000E+00   0.00000E+00
   1.50000E-02   0.00000E+00   0.00000E+00   3.52690E-02   0.00000E+00   0.00000E+00   0.00000E+00   1.50344E+02   0.00000E+00   0.00000E+00   0.00000E+00   0.00000E+00   0.00000E+00   0.00000E+00
   2.50000E-02   0.00000E+00   0.00000E+00   3.52492E-02   0.00000E+00   0.00000E+00   0.00000E+00   1.51290E+02   0.00000E+00   0.00000E+00   0.00000E+00   0.00000E+00   0.00000E+00   0.00000E+00
   3.50000E-02   0.00000E+00   0.00000E+00   3.52292E-02   0.00000E+00   0.00000E+00   0.00000E+00   1.52341E+02   0.00000E+00   0.00000E+00   0.00000E+00   0.00000E+00   0.00000E+00   0.00000E+00
   4.50000E-02   0.00000E+00   0.00000E+00   3.52090E-02   0.00000E+00   0.00000E+00   0.00000E+00   1.53481E+02   0.00000E+00   0.00000E+00   0.00000E+00   0.00000E+00   0.00000E+00   0.00000E+00
   5.50000E-02   0.00000E+00   0.00000E+00   3.51883E-02   0.00000E+00   0.00000E+00   0.00000E+00   1.54700E+02   0.00000E+00   0.00000E+00   0.00000E+00   0.00000E+00   0.00000E+00   0.00000E+00
   6.50000E-02   0.00000E+00   0.00000E+00   3.51670E-02   0.00000E+00   0.00000E+00   0.00000E+00   1.55988E+02   0.00000E+00   0.00000E+00   0.00000E+00   0.00000E+00   0.00000E+00   0.00000E+00
   7.50000E-02   0.00000E+00   0.00000E+00   3.51486E-02   0.00000E+00   0.00000E+00   0.00000E+00   1.57322E+02   0.00000E+00   0.00000E+00   0.00000E+00   0.00000E+00   0.00000E+00   0.00000E+00
   8.50000E-02   0.00000E+00   0.00000E+00   3.51640E-02   0.00000E+00   0.00000E+00   0.00000E+00   1.58671E+02   0.00000E+00   0.00000E+00   0.00000E+00   0.00000E+00   0.00000E+00   0.00000E+00
   9.50000E-02   0.00000E+00   0.00000E+00   3.50785E-02   0.00000E+00   0.00000E+00   0.00000E+00   1.62229E+02   0.00000E+00   0.00000E+00   0.00000E+00   0.00000E+00   0.00000E+00   0.00000E+00
   1.01250E-01   0.00000E+00   0.00000E+00   3.23823E-02   0.00000E+00   0.00000E+00   0.00000E+00   1.49000E+02   1.49000E+02   0.00000E+00   0.00000E+00   0.00000E+00   0.00000E+00   0.00000E+00
   1.03750E-01   0.00000E+00   0.00000E+00   3.14711E-02   0.00000E+00   0.00000E+00   0.00000E+00   1.49000E+02   1.49000E+02   0.00000E+00   0.00000E+00   0.00000E+00   0.00000E+00   0.00000E+00
   1.06250E-01   0.00000E+00   0.00000E+00   2.96762E-02   0.00000E+00   0.00000E+00   0.00000E+00   1.49000E+02   1.49000E+02   0.00000E+00   0.00000E+00   0.00000E+00   0.00000E+00   0.00000E+00
   1.08750E-01   0.00000E+00   0.00000E+00   2.77168E-02   0.00000E+00   0.00000E+00   0.00000E+00   1.49000E+02   1.49000E+02   0.00000E+00   0.00000E+00   0.00000E+00   0.00000E+00   0.00000E+00
   1.11250E-01   0.00000E+00   0.00000E+00   2.58853E-02   0.00000E+00   0.00000E+00   0.00000E+00   1.49000E+02   1.49000E+02   0.00000E+00   0.00000E+00   0.00000E+00   0.00000E+00   0.00000E+00
   1.13750E-01   0.00000E+00   0.00000E+00   2.41262E-02   0.00000E+00   0.00000E+00   0.00000E+00   1.49000E+02   1.49000E+02   0.00000E+00   0.00000E+00   0.00000E+00   0.00000E+00   0.00000E+00
   1.16250E-01   0.00000E+00   0.00000E+00   2.23736E-02   0.00000E+00   0.00000E+00   0.00000E+00   1.49000E+02   1.49000E+02   0.00000E+00   0.00000E+00   0.00000E+00   0.00000E+00   0.00000E+00
   1.18750E-01   0.00000E+00   0.00000E+00   2.06168E-02   0.00000E+00   0.00000E+00   0.00000E+00   1.49000E+02   1.49000E+02   0.00000E+00   0.00000E+00   0.00000E+00   0.00000E+00   0.00000E+00
   1.21250E-01   0.00000E+00   0.00000E+00   1.88617E-02   0.00000E+00   0.00000E+00   0.00000E+00   1.49000E+02   1.49000E+02   0.00000E+00   0.00000E+00   0.00000E+00   0.00000E+00   0.00000E+00
   1.23750E-01   0.00000E+00   0.00000E+00   1.71098E-02   0.00000E+00   0.00000E+00   0.00000E+00   1.49000E+02   1.49000E+02   0.00000E+00   0.00000E+00   0.00000E+00   0.00000E+00   0.00000E+00
   1.26250E-01   0.00000E+00   0.00000E+00   1.53600E-02   0.00000E+00   0.00000E+00   0.00000E+00   1.49000E+02   1.49000E+02   0.00000E+00   0.00000E+00   0.00000E+00   0.00000E+00   0.00000E+00
   1.28750E-01   0.00000E+00   0.00000E+00   1.36110E-02   0.00000E+00   0.00000E+00   0.00000E+00   1.49000E+02   1.49000E+02   0.00000E+00   0.00000E+00   0.00000E+00   0.00000E+00   0.00000E+00
   1.31250E-01   0.00000E+00   0.00000E+00   1.18627E-02   0.00000E+00   0.00000E+00   0.00000E+00   1.49000E+02   1.49000E+02   0.00000E+00   0.00000E+00   0.00000E+00   0.00000E+00   0.00000E+00
   1.33750E-01   0.00000E+00   0.00000E+00   1.01150E-02   0.00000E+00   0.00000E+00   0.00000E+00   1.49000E+02   1.49000E+02   0.00000E+00   0.00000E+00   0.00000E+00   0.00000E+00   0.00000E+00
   1.36250E-01   0.00000E+00   0.00000E+00   8.36844E-03   0.00000E+00   0.00000E+00   0.00000E+00   1.49000E+02   1.49000E+02   0.00000E+00   0.00000E+00   0.00000E+00   0.00000E+00   0.00000E+00
   1.38750E-01   0.00000E+00   0.00000E+00   6.62381E-03   0.00000E+00   0.00000E+00   0.00000E+00   1.49000E+02   1.49000E+02   0.00000E+00   0.00000E+00   0.00000E+00   0.00000E+00   0.00000E+00
   1.41250E-01   0.00000E+00   0.00000E+00   4.88336E-03   0.00000E+00   0.00000E+00   0.00000E+00   1.49000E+02   1.49000E+02   0.00000E+00   0.00000E+00   0.00000E+00   0.00000E+00   0.00000E+00
   1.43750E-01   0.00000E+00   0.00000E+00   3.15267E-03   0.00000E+00   0.00000E+00   0.00000E+00   1.49000E+02   1.49000E+02   0.00000E+00   0.00000E+00   0.00000E+00   0.00000E+00   0.00000E+00
   1.46250E-01   0.00000E+00   0.00000E+00   1.44818E-03   0.00000E+00   0.00000E+00   0.00000E+00   1.49000E+02   1.49000E+02   0.00000E+00   0.00000E+00   0.00000E+00   0.00000E+00   0.00000E+00
   1.48750E-01   0.00000E+00   0.00000E+00  -1.39137E-04   0.00000E+00   0.00000E+00   0.00000E+00   1.49000E+02   1.49000E+02   0.00000E+00   0.00000E+00   0.00000E+00   0.00000E+00   0.00000E+00
   1.55000E-01   0.00000E+00   0.00000E+00   9.75061E-04   0.00000E+00   0.00000E+00   0.00000E+00   1.71099E+02   0.00000E+00   0.00000E+00   0.00000E+00   0.00000E+00   0.00000E+00   0.00000E+00
   1.65000E-01   0.00000E+00   0.00000E+00   8.77595E-04   0.00000E+00   0.00000E+00   0.00000E+00   1.72687E+02   0.00000E+00   0.00000E+00   0.00000E+00   0.00000E+00   0.00000E+00   0.00000E+00
   1.75000E-01   0.00000E+00   0.00000E+00   7.64771E-04   0.00000E+00   0.00000E+00   0.00000E+00   1.74380E+02   0.00000E+00   0.00000E+00   0.00000E+00   0.00000E+00   0.00000E+00   0.00000E+00
   1.85000E-01   0.00000E+00   0.00000E+00   6.47337E-04   0.00000E+00   0.00000E+00   0.00000E+00   1.76153E+02   0.00000E+00   0.00000E+00   0.00000E+00   0.00000E+00   0.00000E+00   0.00000E+00
   1.95000E-01   0.00000E+00   0.00000E+00   5.32310E-04   0.00000E+00   0.00000E+00   0.00000E+00   1.77984E+02   0.00000E+00   0.00000E+00   0.00000E+00   0.00000E+00   0.00000E+00   0.00000E+00
   2.05000E-01   0.00000E+00   0.00000E+00   4.21329E-04   0.00000E+00   0.00000E+00   0.00000E+00   1.79856E+02   0.00000E+00   0.00000E+00   0.00000E+00   0.00000E+00   0.00000E+00   0.00000E+00
   2.15000E-01   0.00000E+00   0.00000E+00   3.15179E-04   0.00000E+00   0.00000E+00   0.00000E+00   1.81755E+02   0.00000E+00   0.00000E+00   0.00000E+00   0.00000E+00   0.00000E+00   0.00000E+00
   2.25000E-01   0.00000E+00   0.00000E+00   2.14586E-04   0.00000E+00   0.00000E+00   0.00000E+00   1.83669E+02   0.00000E+00   0.00000E+00   0.00000E+00   0.00000E+00   0.00000E+00   0.00000E+00
   2.35000E-01   0.00000E+00   0.00000E+00   1.20063E-04   0.00000E+00   0.00000E+00   0.00000E+00   1.85585E+02   0.00000E+00   0.00000E+00   0.00000E+00   0.00000E+00   0.00000E+00   0.00000E+00
   2.45000E-01   0.00000E+00   0.00000E+00   3.28862E-05   0.00000E+00   0.00000E+00   0.00000E+00   1.87420E+02   0.00000E+00   0.00000E+00   0.00000E+00   0.00000E+00   0.00000E+00   0.00000E+00
   2.50000E-01   0.00000E+00   0.00000E+00   3.28862E-05   0.00000E+00   0.00000E+00   0.00000E+00   1.87420E+02   0.00000E+00   0.00000E+00   0.00000E+00   0.00000E+00   0.00000E+00   0.00000E+00
   0.00000E+00   1.00000E-03   0.00000E+00   3.52960E-02   1.90000E-02   0.00000E+00   0.00000E+00   1.49000E+02   0.00000E+00   0.00000E+00   0.00000E+00   0.00000E+00   0.00000E+00   0.00000E+00
   5.00000E-03   1.00000E-03   0.00000E+00   3.52870E-02   0.00000E+00   0.00000E+00   0.00000E+00   1.49534E+02   0.00000E+00   0.00000E+00   0.00000E+00   0.00000E+00   0.00000E+00   0.00000E+00
   1.50000E-02   1.00000E-03   0.00000E+00   3.52690E-02   0.00000E+00   0.00000E+00   0.00000E+00   1.50344E+02   0.00000E+00   0.00000E+00   0.00000E+00   0.00000E+00   0.00000E+00   0.00000E+00
   2.50000E-02   1.00000E-03   0.00000E+00   3.52492E-02   0.00000E+00   0.00000E+00   0.00000E+00   1.51290E+02   0.00000E+00   0.00000E+00   0.00000E+00   0.00000E+00   0.00000E+00   0.00000E+00
   3.50000E-02   1.00000E-03   0.00000E+00   3.52292E-02   0.00000E+00   0.00000E+00   0.00000E+00   1.52341E+02   0.00000E+00   0.00000E+00   0.00000E+00   0.00000E+00   0.00000E+00   0.00000E+00
   4.50000E-02   1.00000E-03   0.00000E+00   3.52090E-02   0.00000E+00   0.00000E+00   0.00000E+00   1.53481E+02   0.00000E+00   0.00000E+00   0.00000E+00   0.00000E+00   0.00000E+00   0.00000E+00
   5.50000E-02   1.00000E-03   0.00000E+00   3.51883E-02   0.00000E+00   0.00000E+00   0.00000E+00   1.54700E+02   0.00000E+00   0.00000E+00   0.00000E+00   0.00000E+00   0.00000E+00   0.00000E+00
   6.50000E-02   1.00000E-03   0.00000E+00   3.51670E-02   0.00000E+00   0.00000E+00   0.00000E+00   1.55988E+02   0.00000E+00   0.00000E+00   0.00000E+00   0.00000E+00   0.00000E+00   0.00000E+00
   7.50000E-02   1.00000E-03   0.00000E+00   3.51486E-02   0.00000E+00   0.00000E+00   0.00000E+00   1.57322E+02   0.00000E+00   0.00000E+00   0.00000E+00   0.00000E+00   0.00000E+00   0.00000E+00
   8.50000E-02   1.00000E-03   0.00000E+00   3.51640E-02   0.00000E+00   0.00000E+00   0.00000E+00   1.58671E+02   0.00000E+00   0.00000E+00   0.00000E+00   0.00000E+00   0.00000E+00   0.00000E+00
   9.50000E-02   1.00000E-03   0.00000E+00   3.50785E-02   0.00000E+00   0.00000E+00   0.00000E+00   1.62229E+02   0.00000E+00   0.00000E+00   0.00000E+00   0.00000E+00   0.00000E+00   0.00000E+00
   1.01250E-01   1.00000E-03   0.00000E+00   3.23823E-02   0.00000E+00   0.00000E+00   0.00000E+00   1.49000E+02   1.49000E+02   0.00000E+00   0.00000E+00   0.00000E+00   0.00000E+00   0.00000E+00
   1.03750E-01   1.00000E-03   0.00000E+00   3.14711E-02   0.00000E+00   0.00000E+00   0.00000E+00   1.49000E+02   1.49000E+02   0.00000E+00   0.00000E+00   0.00000E+00   0.00000E+00   0.00000E+00
   1.06250E-01   1.00000E-03   0.00000E+00   2.96762E-02   0.00000E+00   0.00000E+00   0.00000E+00   1.49000E+02   1.49000E+02   0.00000E+00   0.00000E+00   0.00000E+00   0.00000E+00   0.00000E+00
   1.08750E-01   1.00000E-03   0.00000E+00   2.77168E-02   0.00000E+00   0.00000E+00   0.00000E+00   1.49000E+02   1.49000E+02   0.00000E+00   0.00000E+00   0.00000E+00   0.00000E+00   0.00000E+00
   1.11250E-01   1.00000E-03   0.00000E+00   2.58853E-02   0.00000E+00   0.00000E+00   0.00000E+00   1.49000E+02   1.49000E+02   0.00000E+00   0.00000E+00   0.00000E+00   0.00000E+00   0.00000E+00
   1.13750E-01   1.00000E-03   0.00000E+00   2.41262E-02   0.00000E+00   0.00000E+00   0.00000E+00   1.49000E+02   1.49000E+02   0.00000E+00   0.00000E+00   0.00000E+00   0.00000E+00   0.00000E+00
   1.16250E-01   1.00000E-03   0.00000E+00   2.23736E-02   0.00000E+00   0.00000E+00   0.00000E+00   1.49000E+02   1.49000E+02   0.00000E+00   0.00000E+00   0.00000E+00   0.00000E+00   0.00000E+00
   1.18750E-01   1.00000E-03   0.00000E+00   2.06168E-02   0.00000E+00   0.00000E+00   0.00000E+00   1.49000E+02   1.49000E+02   0.00000E+00   0.00000E+00   0.00000E+00   0.00000E+00   0.00000E+00
   1.21250E-01   1.00000E-03   0.00000E+00   1.88617E-02   0.00000E+00   0.00000E+00   0.00000E+00   1.49000E+02   1.49000E+02   0.00000E+00   0.00000E+00   0.00000E+00   0.00000E+00   0.00000E+00
   1.23750E-01   1.00000E-03   0.00000E+00   1.71098E-02   0.00000E+00   0.00000E+00   0.00000E+00   1.49000E+02   1.49000E+02   0.00000E+00   0.00000E+00   0.00000E+00   0.00000E+00   0.00000E+00
   1.26250E-01   1.00000E-03   0.00000E+00   1.53600E-02   0.00000E+00   0.00000E+00   0.00000E+00   1.49000E+02   1.49000E+02   0.00000E+00   0.00000E+00   0.00000E+00   0.00000E+00   0.00000E+00
   1.28750E-01   1.00000E-03   0.00000E+00   1.36110E-02   0.00000E+00   0.00000E+00   0.00000E+00   1.49000E+02   1.49000E+02   0.00000E+00   0.00000E+00   0.00000E+00   0.00000E+00   0.00000E+00
   1.31250E-01   1.00000E-03   0.00000E+00   1.18627E-02   0.00000E+00   0.00000E+00   0.00000E+00   1.49000E+02   1.49000E+02   0.00000E+00   0.00000E+00   0.00000E+00   0.00000E+00   0.00000E+00
   1.33750E-01   1.00000E-03   0.00000E+00   1.01150E-02   0.00000E+00   0.00000E+00   0.00000E+00   1.49000E+02   1.49000E+02   0.00000E+00   0.00000E+00   0.00000E+00   0.00000E+00   0.00000E+00
   1.36250E-01   1.00000E-03   0.00000E+00   8.36844E-03   0.00000E+00   0.00000E+00   0.00000E+00   1.49000E+02   1.49000E+02   0.00000E+00   0.00000E+00   0.00000E+00   0.00000E+00   0.00000E+00
   1.38750E-01   1.00000E-03   0.00000E+00   6.62381E-03   0.00000E+00   0.00000E+00   0.00000E+00   1.49000E+02   1.49000E+02   0.00000E+00   0.00000E+00   0.00000E+00   0.00000E+00   0.00000E+00
   1.41250E-01   1.00000E-03   0.00000E+00   4.88336E-03   0.00000E+00   0.00000E+00   0.00000E+00   1.49000E+02   1.49000E+02   0.00000E+00   0.00000E+00   0.00000E+00   0.00000E+00   0.00000E+00
   1.43750E-01   1.00000E-03   0.00000E+00   3.15267E-03   0.00000E+00   0.00000E+00   0.00000E+00   1.49000E+02   1.49000E+02   0.00000E+00   0.00000E+00   0.00000E+00   0.00000E+00   0.00000E+00
   1.46250E-01   1.00000E-03   0.00000E+00   1.44818E-03   0.00000E+00   0.00000E+00   0.00000E+00   1.49000E+02   1.49000E+02   0.00000E+00   0.00000E+00   0.00000E+00   0.00000E+00   0.00000E+00
   1.48750E-01   1.00000E-03   0.00000E+00  -1.39137E-04   0.00000E+00   0.00000E+00   0.00000E+00   1.49000E+02   1.49000E+02   0.00000E+00   0.00000E+00   0.00000E+00   0.00000E+00   0.00000E+00
   1.55000E-01   1.00000E-03   0.00000E+00   9.75061E-04   0.00000E+00   0.00000E+00   0.00000E+00   1.71099E+02   0.00000E+00   0.00000E+00   0.00000E+00   0.00000E+00   0.00000E+00   0.00000E+00
   1.65000E-01   1.00000E-03   0.00000E+00   8.77595E-04   0.00000E+00   0.00000E+00   0.00000E+00   1.72687E+02   0.00000E+00   0.00000E+00   0.00000E+00   0.00000E+00   0.00000E+00   0.00000E+00
   1.75000E-01   1.00000E-03   0.00000E+00   7.64771E-04   0.00000E+00   0.00000E+00   0.00000E+00   1.74380E+02   0.00000E+00   0.00000E+00   0.00000E+00   0.00000E+00   0.00000E+00   0.00000E+00
   1.85000E-01   1.00000E-03   0.00000E+00   6.47337E-04   0.00000E+00   0.00000E+00   0.00000E+00   1.76153E+02   0.00000E+00   0.00000E+00   0.00000E+00   0.00000E+00   0.00000E+00   0.00000E+00
   1.95000E-01   1.00000E-03   0.00000E+00   5.32310E-04   0.00000E+00   0.00000E+00   0.00000E+00   1.77984E+02   0.00000E+00   0.00000E+00   0.00000E+00   0.00000E+00   0.00000E+00   0.00000E+00
   2.05000E-01   1.00000E-03   0.00000E+00   4.21329E-04   0.00000E+00   0.00000E+00   0.00000E+00   1.79856E+02   0.00000E+00   0.00000E+00   0.00000E+00   0.00000E+00   0.00000E+00   0.00000E+00
   2.15000E-01   1.00000E-03   0.00000E+00   3.15179E-04   0.00000E+00   0.00000E+00   0.00000E+00   1.81755E+02   0.00000E+00   0.00000E+00   0.00000E+00   0.00000E+00   0.00000E+00   0.00000E+00
   2.25000E-01   1.00000E-03   0.00000E+00   2.14586E-04   0.00000E+00   0.00000E+00   0.00000E+00   1.83669E+02   0.00000E+00   0.00000E+00   0.00000E+00   0.00000E+00   0.00000E+00   0.00000E+00
   2.35000E-01   1.00000E-03   0.00000E+00   1.20063E-04   0.00000E+00   0.00000E+00   0.00000E+00   1.85585E+02   0.00000E+00   0.00000E+00   0.00000E+00   0.00000E+00   0.00000E+00   0.00000E+00
   2.45000E-01   1.00000E-03   0.00000E+00   3.28862E-05   0.00000E+00   0.00000E+00   0.00000E+00   1.87420E+02   0.00000E+00   0.00000E+00   0.00000E+00   0.00000E+00   0.00000E+00   0.00000E+00
   2.50000E-01   1.00000E-03   0.00000E+00   3.28862E-05   0.00000E+00   0.00000E+00   0.00000E+00   1.87420E+02   0.00000E+00   0.00000E+00   0.00000E+00   0.00000E+00   0.00000E+00   0.00000E+00
   0.00000E+00   3.00000E-03   0.00000E+00   3.52964E-02   5.09999E-02   0.00000E+00   0.00000E+00   1.49000E+02   0.00000E+00   0.00000E+00   0.00000E+00   0.00000E+00   0.00000E+00   0.00000E+00
   5.00000E-03   3.00000E-03   0.00000E+00   3.52872E-02   0.00000E+00   0.00000E+00   0.00000E+00   1.49347E+02   0.00000E+00   0.00000E+00   0.00000E+00   0.00000E+00   0.00000E+00   0.00000E+00
   1.50000E-02   3.00000E-03   0.00000E+00   3.52687E-02   0.00000E+00   0.00000E+00   0.00000E+00   1.49964E+02   0.00000E+00   0.00000E+00   0.00000E+00   0.00000E+00   0.00000E+00   0.00000E+00
   2.50000E-02   3.00000E-03   0.00000E+00   3.52491E-02   0.00000E+00   0.00000E+00   0.00000E+00   1.50753E+02   0.00000E+00   0.00000E+00   0.00000E+00   0.00000E+00   0.00000E+00   0.00000E+00
   3.50000E-02   3.00000E-03   0.00000E+00   3.52291E-02   0.00000E+00   0.00000E+00   0.00000E+00   1.51675E+02   0.00000E+00   0.00000E+00   0.00000E+00   0.00000E+00   0.00000E+00   0.00000E+00
   4.50000E-02   3.00000E-03   0.00000E+00   3.52090E-02   0.00000E+00   0.00000E+00   0.00000E+00   1.52704E+02   0.00000E+00   0.00000E+00   0.00000E+00   0.00000E+00   0.00000E+00   0.00000E+00
   5.50000E-02   3.00000E-03   0.00000E+00   3.51882E-02   0.00000E+00   0.00000E+00   0.00000E+00   1.53825E+02   0.00000E+00   0.00000E+00   0.00000E+00   0.00000E+00   0.00000E+00   0.00000E+00
   6.50000E-02   3.00000E-03   0.00000E+00   3.51669E-02   0.00000E+00   0.00000E+00   0.00000E+00   1.55028E+02   0.00000E+00   0.00000E+00   0.00000E+00   0.00000E+00   0.00000E+00   0.00000E+00
   7.50000E-02   3.00000E-03   0.00000E+00   3.51493E-02   0.00000E+00   0.00000E+00   0.00000E+00   1.56285E+02   0.00000E+00   0.00000E+00   0.00000E+00   0.00000E+00   0.00000E+00   0.00000E+00
   8.50000E-02   3.00000E-03   0.00000E+00   3.51701E-02   0.00000E+00   0.00000E+00   0.00000E+00   1.57537E+02   0.00000E+00   0.00000E+00   0.00000E+00   0.00000E+00   0.00000E+00   0.00000E+00
   9.50000E-02   3.00000E-03   0.00000E+00   3.51706E-02   0.00000E+00   0.00000E+00   0.00000E+00   1.59806E+02   0.00000E+00   0.00000E+00   0.00000E+00   0.00000E+00   0.00000E+00   0.00000E+00
   1.01250E-01   3.00000E-03   0.00000E+00   3.25093E-02   0.00000E+00   0.00000E+00   0.00000E+00   1.49000E+02   1.49000E+02   0.00000E+00   0.00000E+00   0.00000E+00   0.00000E+00   0.00000E+00
   1.03750E-01   3.00000E-03   0.00000E+00   3.11316E-02   0.00000E+00   0.00000E+00   0.00000E+00   1.49000E+02   1.49000E+02   0.00000E+00   0.00000E+00   0.00000E+00   0.00000E+00   0.00000E+00
   1.06250E-01   3.00000E-03   0.00000E+00   2.94497E-02   0.00000E+00   0.00000E+00   0.00000E+00   1.49000E+02   1.49000E+02   0.00000E+00   0.00000E+00   0.00000E+00   0.00000E+00   0.00000E+00
   1.08750E-01   3.00000E-03   0.00000E+00   2.76522E-02   0.00000E+00   0.00000E+00   0.00000E+00   1.49000E+02   1.49000E+02   0.00000E+00   0.00000E+00   0.00000E+00   0.00000E+00   0.00000E+00
   1.11250E-01   3.00000E-03   0.00000E+00   2.58713E-02   0.00000E+00   0.00000E+00   0.00000E+00   1.49000E+02   1.49000E+02   0.00000E+00   0.00000E+00   0.00000E+00   0.00000E+00   0.00000E+00
   1.13750E-01   3.00000E-03   0.00000E+00   2.41147E-02   0.00000E+00   0.00000E+00   0.00000E+00   1.49000E+02   1.49000E+02   0.00000E+00   0.00000E+00   0.00000E+00   0.00000E+00   0.00000E+00
   1.16250E-01   3.00000E-03   0.00000E+00   2.23630E-02   0.00000E+00   0.00000E+00   0.00000E+00   1.49000E+02   1.49000E+02   0.00000E+00   0.00000E+00   0.00000E+00   0.00000E+00   0.00000E+00
   1.18750E-01   3.00000E-03   0.00000E+00   2.06103E-02   0.00000E+00   0.00000E+00   0.00000E+00   1.49000E+02   1.49000E+02   0.00000E+00   0.00000E+00   0.00000E+00   0.00000E+00   0.00000E+00
   1.21250E-01   3.00000E-03   0.00000E+00   1.88584E-02   0.00000E+00   0.00000E+00   0.00000E+00   1.49000E+02   1.49000E+02   0.00000E+00   0.00000E+00   0.00000E+00   0.00000E+00   0.00000E+00
   1.23750E-01   3.00000E-03   0.00000E+00   1.71080E-02   0.00000E+00   0.00000E+00   0.00000E+00   1.49000E+02   1.49000E+02   0.00000E+00   0.00000E+00   0.00000E+00   0.00000E+00   0.00000E+00
   1.26250E-01   3.00000E-03   0.00000E+00   1.53587E-02   0.00000E+00   0.00000E+00   0.00000E+00   1.49000E+02   1.49000E+02   0.00000E+00   0.00000E+00   0.00000E+00   0.00000E+00   0.00000E+00
   1.28750E-01   3.00000E-03   0.00000E+00   1.36101E-02   0.00000E+00   0.00000E+00   0.00000E+00   1.49000E+02   1.49000E+02   0.00000E+00   0.00000E+00   0.00000E+00   0.00000E+00   0.00000E+00
   1.31250E-01   3.00000E-03   0.00000E+00   1.18619E-02   0.00000E+00   0.00000E+00   0.00000E+00   1.49000E+02   1.49000E+02   0.00000E+00   0.00000E+00   0.00000E+00   0.00000E+00   0.00000E+00
   1.33750E-01   3.00000E-03   0.00000E+00   1.01142E-02   0.00000E+00   0.00000E+00   0.00000E+00   1.49000E+02   1.49000E+02   0.00000E+00   0.00000E+00   0.00000E+00   0.00000E+00   0.00000E+00
   1.36250E-01   3.00000E-03   0.00000E+00   8.36725E-03   0.00000E+00   0.00000E+00   0.00000E+00   1.49000E+02   1.49000E+02   0.00000E+00   0.00000E+00   0.00000E+00   0.00000E+00   0.00000E+00
   1.38750E-01   3.00000E-03   0.00000E+00   6.62146E-03   0.00000E+00   0.00000E+00   0.00000E+00   1.49000E+02   1.49000E+02   0.00000E+00   0.00000E+00   0.00000E+00   0.00000E+00   0.00000E+00
   1.41250E-01   3.00000E-03   0.00000E+00   4.87798E-03   0.00000E+00   0.00000E+00   0.00000E+00   1.49000E+02   1.49000E+02   0.00000E+00   0.00000E+00   0.00000E+00   0.00000E+00   0.00000E+00
   1.43750E-01   3.00000E-03   0.00000E+00   3.13884E-03   0.00000E+00   0.00000E+00   0.00000E+00   1.49000E+02   1.49000E+02   0.00000E+00   0.00000E+00   0.00000E+00   0.00000E+00   0.00000E+00
   1.46250E-01   3.00000E-03   0.00000E+00   1.40614E-03   0.00000E+00   0.00000E+00   0.00000E+00   1.49000E+02   1.49000E+02   0.00000E+00   0.00000E+00   0.00000E+00   0.00000E+00   0.00000E+00
   1.48750E-01   3.00000E-03   0.00000E+00  -3.17194E-04   0.00000E+00   0.00000E+00   0.00000E+00   1.49000E+02   1.49000E+02   0.00000E+00   0.00000E+00   0.00000E+00   0.00000E+00   0.00000E+00
   1.55000E-01   3.00000E-03   0.00000E+00   9.89353E-04   0.00000E+00   0.00000E+00   0.00000E+00   1.70820E+02   0.00000E+00   0.00000E+00   0.00000E+00   0.00000E+00   0.00000E+00   0.00000E+00
   1.65000E-01   3.00000E-03   0.00000E+00   8.81453E-04   0.00000E+00   0.00000E+00   0.00000E+00   1.72383E+02   0.00000E+00   0.00000E+00   0.00000E+00   0.00000E+00   0.00000E+00   0.00000E+00
   1.75000E-01   3.00000E-03   0.00000E+00   7.65388E-04   0.00000E+00   0.00000E+00   0.00000E+00   1.74006E+02   0.00000E+00   0.00000E+00   0.00000E+00   0.00000E+00   0.00000E+00   0.00000E+00
   1.85000E-01   3.00000E-03   0.00000E+00   6.47768E-04   0.00000E+00   0.00000E+00   0.00000E+00   1.75688E+02   0.00000E+00   0.00000E+00   0.00000E+00   0.00000E+00   0.00000E+00   0.00000E+00
   1.95000E-01   3.00000E-03   0.00000E+00   5.32699E-04   0.00000E+00   0.00000E+00   0.00000E+00   1.77421E+02   0.00000E+00   0.00000E+00   0.00000E+00   0.00000E+00   0.00000E+00   0.00000E+00
   2.05000E-01   3.00000E-03   0.00000E+00   4.21686E-04   0.00000E+00   0.00000E+00   0.00000E+00   1.79194E+02   0.00000E+00   0.00000E+00   0.00000E+00   0.00000E+00   0.00000E+00   0.00000E+00
   2.15000E-01   3.00000E-03   0.00000E+00   3.15539E-04   0.00000E+00   0.00000E+00   0.00000E+00   1.81000E+02   0.00000E+00   0.00000E+00   0.00000E+00   0.00000E+00   0.00000E+00   0.00000E+00
   2.25000E-01   3.00000E-03   0.00000E+00   2.14964E-04   0.00000E+00   0.00000E+00   0.00000E+00   1.82828E+02   0.00000E+00   0.00000E+00   0.00000E+00   0.00000E+00   0.00000E+00   0.00000E+00
   2.35000E-01   3.00000E-03   0.00000E+00   1.20564E-04   0.00000E+00   0.00000E+00   0.00000E+00   1.84668E+02   0.00000E+00   0.00000E+00   0.00000E+00   0.00000E+00   0.00000E+00   0.00000E+00
   2.45000E-01   3.00000E-03   0.00000E+00   3.43630E-05   0.00000E+00   0.00000E+00   0.00000E+00   1.86452E+02   0.00000E+00   0.00000E+00   0.00000E+00   0.00000E+00   0.00000E+00   0.00000E+00
   2.50000E-01   3.00000E-03   0.00000E+00   3.43630E-05   0.00000E+00   0.00000E+00   0.00000E+00   1.86452E+02   0.00000E+00   0.00000E+00   0.00000E+00   0.00000E+00   0.00000E+00   0.00000E+00
   0.00000E+00   5.00000E-03   0.00000E+00   3.52978E-02   7.49999E-02   0.00000E+00   0.00000E+00   1.49000E+02   0.00000E+00   0.00000E+00   0.00000E+00   0.00000E+00   0.00000E+00   0.00000E+00
   5.00000E-03   5.00000E-03   0.00000E+00   3.52880E-02   0.00000E+00   0.00000E+00   0.00000E+00   1.49204E+02   0.00000E+00   0.00000E+00   0.00000E+00   0.00000E+00   0.00000E+00   0.00000E+00
   1.50000E-02   5.00000E-03   0.00000E+00   3.52685E-02   0.00000E+00   0.00000E+00   0.00000E+00   1.49618E+02   0.00000E+00   0.00000E+00   0.00000E+00   0.00000E+00   0.00000E+00   0.00000E+00
   2.50000E-02   5.00000E-03   0.00000E+00   3.52490E-02   0.00000E+00   0.00000E+00   0.00000E+00   1.50208E+02   0.00000E+00   0.00000E+00   0.00000E+00   0.00000E+00   0.00000E+00   0.00000E+00
   3.50000E-02   5.00000E-03   0.00000E+00   3.52291E-02   0.00000E+00   0.00000E+00   0.00000E+00   1.50945E+02   0.00000E+00   0.00000E+00   0.00000E+00   0.00000E+00   0.00000E+00   0.00000E+00
   4.50000E-02   5.00000E-03   0.00000E+00   3.52089E-02   0.00000E+00   0.00000E+00   0.00000E+00   1.51810E+02   0.00000E+00   0.00000E+00   0.00000E+00   0.00000E+00   0.00000E+00   0.00000E+00
   5.50000E-02   5.00000E-03   0.00000E+00   3.51881E-02   0.00000E+00   0.00000E+00   0.00000E+00   1.52787E+02   0.00000E+00   0.00000E+00   0.00000E+00   0.00000E+00   0.00000E+00   0.00000E+00
   6.50000E-02   5.00000E-03   0.00000E+00   3.51672E-02   0.00000E+00   0.00000E+00   0.00000E+00   1.53861E+02   0.00000E+00   0.00000E+00   0.00000E+00   0.00000E+00   0.00000E+00   0.00000E+00
   7.50000E-02   5.00000E-03   0.00000E+00   3.51530E-02   0.00000E+00   0.00000E+00   0.00000E+00   1.55010E+02   0.00000E+00   0.00000E+00   0.00000E+00   0.00000E+00   0.00000E+00   0.00000E+00
   8.50000E-02   5.00000E-03   0.00000E+00   3.51890E-02   0.00000E+00   0.00000E+00   0.00000E+00   1.56165E+02   0.00000E+00   0.00000E+00   0.00000E+00   0.00000E+00   0.00000E+00   0.00000E+00
   9.50000E-02   5.00000E-03   0.00000E+00   3.53399E-02   0.00000E+00   0.00000E+00   0.00000E+00   1.57324E+02   0.00000E+00   0.00000E+00   0.00000E+00   0.00000E+00   0.00000E+00   0.00000E+00
   1.01250E-01   5.00000E-03   0.00000E+00   3.28653E-02   0.00000E+00   0.00000E+00   0.00000E+00   1.49000E+02   1.49000E+02   0.00000E+00   0.00000E+00   0.00000E+00   0.00000E+00   0.00000E+00
   1.03750E-01   5.00000E-03   0.00000E+00   3.08685E-02   0.00000E+00   0.00000E+00   0.00000E+00   1.49000E+02   1.49000E+02   0.00000E+00   0.00000E+00   0.00000E+00   0.00000E+00   0.00000E+00
   1.06250E-01   5.00000E-03   0.00000E+00   2.91926E-02   0.00000E+00   0.00000E+00   0.00000E+00   1.49000E+02   1.49000E+02   0.00000E+00   0.00000E+00   0.00000E+00   0.00000E+00   0.00000E+00
   1.08750E-01   5.00000E-03   0.00000E+00   2.75385E-02   0.00000E+00   0.00000E+00   0.00000E+00   1.49000E+02   1.49000E+02   0.00000E+00   0.00000E+00   0.00000E+00   0.00000E+00   0.00000E+00
   1.11250E-01   5.00000E-03   0.00000E+00   2.58227E-02   0.00000E+00   0.00000E+00   0.00000E+00   1.49000E+02   1.49000E+02   0.00000E+00   0.00000E+00   0.00000E+00   0.00000E+00   0.00000E+00
   1.13750E-01   5.00000E-03   0.00000E+00   2.40792E-02   0.00000E+00   0.00000E+00   0.00000E+00   1.49000E+02   1.49000E+02   0.00000E+00   0.00000E+00   0.00000E+00   0.00000E+00   0.00000E+00
   1.16250E-01   5.00000E-03   0.00000E+00   2.23332E-02   0.00000E+00   0.00000E+00   0.00000E+00   1.49000E+02   1.49000E+02   0.00000E+00   0.00000E+00   0.00000E+00   0.00000E+00   0.00000E+00
   1.18750E-01   5.00000E-03   0.00000E+00   2.05884E-02   0.00000E+00   0.00000E+00   0.00000E+00   1.49000E+02   1.49000E+02   0.00000E+00   0.00000E+00   0.00000E+00   0.00000E+00   0.00000E+00
   1.21250E-01   5.00000E-03   0.00000E+00   1.88434E-02   0.00000E+00   0.00000E+00   0.00000E+00   1.49000E+02   1.49000E+02   0.00000E+00   0.00000E+00   0.00000E+00   0.00000E+00   0.00000E+00
   1.23750E-01   5.00000E-03   0.00000E+00   1.70975E-02   0.00000E+00   0.00000E+00   0.00000E+00   1.49000E+02   1.49000E+02   0.00000E+00   0.00000E+00   0.00000E+00   0.00000E+00   0.00000E+00
   1.26250E-01   5.00000E-03   0.00000E+00   1.53511E-02   0.00000E+00   0.00000E+00   0.00000E+00   1.49000E+02   1.49000E+02   0.00000E+00   0.00000E+00   0.00000E+00   0.00000E+00   0.00000E+00
   1.28750E-01   5.00000E-03   0.00000E+00   1.36043E-02   0.00000E+00   0.00000E+00   0.00000E+00   1.49000E+02   1.49000E+02   0.00000E+00   0.00000E+00   0.00000E+00   0.00000E+00   0.00000E+00
   1.31250E-01   5.00000E-03   0.00000E+00   1.18574E-02   0.00000E+00   0.00000E+00   0.00000E+00   1.49000E+02   1.49000E+02   0.00000E+00   0.00000E+00   0.00000E+00   0.00000E+00   0.00000E+00
   1.33750E-01   5.00000E-03   0.00000E+00   1.01104E-02   0.00000E+00   0.00000E+00   0.00000E+00   1.49000E+02   1.49000E+02   0.00000E+00   0.00000E+00   0.00000E+00   0.00000E+00   0.00000E+00