VARIABLES="XP","YP","P","U","V","TS","TF"
ZONE T="Zone 001"I=    22 J=    12 F=POINT
  0.000E+00  0.000E+00  3.829E+01  1.000E+00  0.000E+00  3.076E+02  3.000E+02
  0.000E+00  1.125E-03  3.829E+01  1.000E+00  0.000E+00  3.076E+02  3.000E+02
  0.000E+00  3.375E-03  3.829E+01  1.000E+00  0.000E+00  3.062E+02  3.000E+02
  0.000E+00  5.625E-03  3.828E+01  1.000E+00  0.000E+00  3.050E+02  3.000E+02
  0.000E+00  7.875E-03  3.828E+01  1.000E+00  0.000E+00  3.041E+02  3.000E+02
  0.000E+00  1.012E-02  3.828E+01  1.000E+00  0.000E+00  3.033E+02  3.000E+02
  0.000E+00  1.238E-02  3.828E+01  1.000E+00  0.000E+00  3.027E+02  3.000E+02
  0.000E+00  1.462E-02  3.828E+01  1.000E+00  0.000E+00  3.022E+02  3.000E+02
  0.000E+00  1.688E-02  3.828E+01  1.000E+00  0.000E+00  3.018E+02  3.000E+02
  0.000E+00  1.912E-02  3.828E+01  1.000E+00  0.000E+00  3.015E+02  3.000E+02
  0.000E+00  2.137E-02  3.828E+01  1.000E+00  0.000E+00  3.013E+02  3.000E+02
  0.000E+00  2.362E-02  3.828E+01  1.000E+00  0.000E+00  3.011E+02  3.000E+02
  0.000E+00  2.587E-02  3.828E+01  1.000E+00  0.000E+00  3.009E+02  3.000E+02
  0.000E+00  2.812E-02  3.828E+01  1.000E+00  0.000E+00  3.008E+02  3.000E+02
  0.000E+00  3.037E-02  3.828E+01  1.000E+00  0.000E+00  3.006E+02  3.000E+02
  0.000E+00  3.262E-02  3.828E+01  1.000E+00  0.000E+00  3.006E+02  3.000E+02
  0.000E+00  3.487E-02  3.828E+01  1.000E+00  0.000E+00  3.005E+02  3.000E+02
  0.000E+00  3.712E-02  3.828E+01  1.000E+00  0.000E+00  3.004E+02  3.000E+02
  0.000E+00  3.938E-02  3.828E+01  1.000E+00  0.000E+00  3.004E+02  3.000E+02
  0.000E+00  4.163E-02  3.829E+01  1.000E+00  0.000E+00  3.004E+02  3.000E+02
  0.000E+00  4.388E-02  3.829E+01  1.000E+00  0.000E+00  3.004E+02  3.000E+02
  0.000E+00  4.500E-02  3.829E+01  1.000E+00  0.000E+00  3.004E+02  3.000E+02
  5.700E-03  0.000E+00  3.638E+01  0.000E+00  0.000E+00  3.085E+02  3.085E+02
  5.700E-03  1.125E-03  3.637E+01  9.899E-01  2.051E-03  3.076E+02  3.037E+02
  5.700E-03  3.375E-03  3.637E+01  1.001E+00  1.898E-03  3.062E+02  3.028E+02
  5.700E-03  5.625E-03  3.637E+01  1.001E+00  1.571E-03  3.050E+02  3.022E+02
  5.700E-03  7.875E-03  3.637E+01  1.001E+00  1.292E-03  3.041E+02  3.018E+02
  5.700E-03  1.012E-02  3.637E+01  1.000E+00  1.046E-03  3.033E+02  3.014E+02
  5.700E-03  1.238E-02  3.637E+01  1.000E+00  8.256E-04  3.027E+02  3.012E+02
  5.700E-03  1.462E-02  3.637E+01  1.000E+00  6.246E-04  3.022E+02  3.010E+02
  5.700E-03  1.688E-02  3.637E+01  1.000E+00  4.370E-04  3.018E+02  3.008E+02
  5.700E-03  1.912E-02  3.637E+01  1.000E+00  2.582E-04  3.015E+02  3.006E+02
  5.700E-03  2.137E-02  3.637E+01  1.000E+00  8.538E-05  3.013E+02  3.005E+02
  5.700E-03  2.362E-02  3.637E+01  1.000E+00 -8.538E-05  3.011E+02  3.004E+02
  5.700E-03  2.587E-02  3.637E+01  1.000E+00 -2.582E-04  3.009E+02  3.004E+02
  5.700E-03  2.812E-02  3.637E+01  1.000E+00 -4.370E-04  3.008E+02  3.003E+02
  5.700E-03  3.037E-02  3.637E+01  1.000E+00 -6.246E-04  3.006E+02  3.003E+02
  5.700E-03  3.262E-02  3.637E+01  1.000E+00 -8.256E-04  3.006E+02  3.002E+02
  5.700E-03  3.487E-02  3.637E+01  1.000E+00 -1.046E-03  3.005E+02  3.002E+02
  5.700E-03  3.712E-02  3.637E+01  1.001E+00 -1.292E-03  3.004E+02  3.002E+02
  5.700E-03  3.938E-02  3.637E+01  1.001E+00 -1.571E-03  3.004E+02  3.002E+02
  5.700E-03  4.163E-02  3.637E+01  1.001E+00 -1.898E-03  3.004E+02  3.001E+02
  5.700E-03  4.388E-02  3.637E+01  9.899E-01 -2.051E-03  3.004E+02  3.001E+02
  5.700E-03  4.500E-02  3.638E+01  0.000E+00  0.000E+00  3.004E+02  3.001E+02
  1.710E-02  0.000E+00  3.254E+01  0.000E+00  0.000E+00  3.089E+02  3.089E+02
  1.710E-02  1.125E-03  3.254E+01  9.878E-01  3.684E-04  3.082E+02  3.066E+02
  1.710E-02  3.375E-03  3.254E+01  1.001E+00  4.005E-04  3.070E+02  3.054E+02
  1.710E-02  5.625E-03  3.254E+01  1.001E+00  4.265E-04  3.060E+02  3.045E+02
  1.710E-02  7.875E-03  3.254E+01  1.001E+00  4.222E-04  3.050E+02  3.037E+02
  1.710E-02  1.012E-02  3.254E+01  1.001E+00  3.908E-04  3.043E+02  3.031E+02
  1.710E-02  1.238E-02  3.254E+01  1.001E+00  3.406E-04  3.036E+02  3.026E+02
  1.710E-02  1.462E-02  3.254E+01  1.001E+00  2.768E-04  3.031E+02  3.022E+02
  1.710E-02  1.688E-02  3.254E+01  1.001E+00  2.038E-04  3.026E+02  3.018E+02
  1.710E-02  1.912E-02  3.254E+01  1.001E+00  1.248E-04  3.022E+02  3.015E+02
  1.710E-02  2.137E-02  3.254E+01  1.001E+00  4.199E-05  3.019E+02  3.013E+02
  1.710E-02  2.362E-02  3.254E+01  1.001E+00 -4.199E-05  3.016E+02  3.011E+02
  1.710E-02  2.587E-02  3.254E+01  1.001E+00 -1.248E-04  3.014E+02  3.009E+02
  1.710E-02  2.812E-02  3.254E+01  1.001E+00 -2.038E-04  3.012E+02  3.008E+02
  1.710E-02  3.037E-02  3.254E+01  1.001E+00 -2.768E-04  3.010E+02  3.007E+02
  1.710E-02  3.262E-02  3.254E+01  1.001E+00 -3.406E-04  3.009E+02  3.006E+02
  1.710E-02  3.487E-02  3.254E+01  1.001E+00 -3.908E-04  3.008E+02  3.005E+02
  1.710E-02  3.712E-02  3.254E+01  1.001E+00 -4.222E-04  3.007E+02  3.005E+02
  1.710E-02  3.938E-02  3.254E+01  1.001E+00 -4.265E-04  3.007E+02  3.004E+02
  1.710E-02  4.163E-02  3.254E+01  1.001E+00 -4.005E-04  3.006E+02  3.004E+02
  1.710E-02  4.388E-02  3.254E+01  9.878E-01 -3.684E-04  3.006E+02  3.004E+02
  1.710E-02  4.500E-02  3.254E+01  0.000E+00  0.000E+00  3.006E+02  3.004E+02
  2.850E-02  0.000E+00  2.872E+01  0.000E+00  0.000E+00  3.093E+02  3.093E+02
  2.850E-02  1.125E-03  2.872E+01  9.874E-01  3.710E-05  3.087E+02  3.079E+02
  2.850E-02  3.375E-03  2.872E+01  1.001E+00  4.611E-05  3.077E+02  3.068E+02
  2.850E-02  5.625E-03  2.872E+01  1.001E+00  5.813E-05  3.067E+02  3.058E+02
  2.850E-02  7.875E-03  2.872E+01  1.001E+00  6.458E-05  3.059E+02  3.050E+02
  2.850E-02  1.012E-02  2.872E+01  1.001E+00  6.584E-05  3.051E+02  3.043E+02
  2.850E-02  1.238E-02  2.872E+01  1.001E+00  6.215E-05  3.045E+02  3.037E+02
  2.850E-02  1.462E-02  2.872E+01  1.001E+00  5.359E-05  3.039E+02  3.031E+02
  2.850E-02  1.688E-02  2.872E+01  1.001E+00  4.109E-05  3.033E+02  3.027E+02
  2.850E-02  1.912E-02  2.872E+01  1.001E+00  2.583E-05  3.029E+02  3.023E+02
  2.850E-02  2.137E-02  2.872E+01  1.001E+00  8.790E-06  3.025E+02  3.020E+02
  2.850E-02  2.362E-02  2.872E+01  1.001E+00 -8.790E-06  3.022E+02  3.017E+02
  2.850E-02  2.587E-02  2.872E+01  1.001E+00 -2.583E-05  3.019E+02  3.015E+02
  2.850E-02  2.812E-02  2.872E+01  1.001E+00 -4.109E-05  3.017E+02  3.013E+02
  2.850E-02  3.037E-02  2.872E+01  1.001E+00 -5.359E-05  3.015E+02  3.011E+02
  2.850E-02  3.262E-02  2.872E+01  1.001E+00 -6.215E-05  3.013E+02  3.010E+02
  2.850E-02  3.487E-02  2.872E+01  1.001E+00 -6.584E-05  3.012E+02  3.009E+02
  2.850E-02  3.712E-02  2.872E+01  1.001E+00 -6.458E-05  3.011E+02  3.008E+02
  2.850E-02  3.938E-02  2.872E+01  1.001E+00 -5.813E-05  3.010E+02  3.007E+02
  2.850E-02  4.163E-02  2.872E+01  1.001E+00 -4.611E-05  3.010E+02  3.007E+02
  2.850E-02  4.388E-02  2.872E+01  9.874E-01 -3.710E-05  3.009E+02  3.007E+02
  2.850E-02  4.500E-02  2.872E+01  0.000E+00  0.000E+00  3.009E+02  3.007E+02
  3.990E-02  0.000E+00  2.489E+01  0.000E+00  0.000E+00  3.096E+02  3.096E+02
  3.990E-02  1.125E-03  2.489E+01  9.873E-01  5.331E-06  3.091E+02  3.086E+02
  3.990E-02  3.375E-03  2.489E+01  1.001E+00  6.087E-06  3.082E+02  3.076E+02
  3.990E-02  5.625E-03  2.489E+01  1.001E+00  8.031E-06  3.073E+02  3.067E+02
  3.990E-02  7.875E-03  2.489E+01  1.001E+00  9.047E-06  3.065E+02  3.059E+02
  3.990E-02  1.012E-02  2.489E+01  1.001E+00  9.310E-06  3.058E+02  3.052E+02
  3.990E-02  1.238E-02  2.489E+01  1.001E+00  8.629E-06  3.052E+02  3.045E+02
  3.990E-02  1.462E-02  2.489E+01  1.001E+00  7.562E-06  3.046E+02  3.039E+02
  3.990E-02  1.688E-02  2.489E+01  1.001E+00  5.784E-06  3.040E+02  3.034E+02
  3.990E-02  1.912E-02  2.489E+01  1.001E+00  3.550E-06  3.036E+02  3.030E+02
  3.990E-02  2.137E-02  2.489E+01  1.001E+00  1.230E-06  3.031E+02  3.026E+02
  3.990E-02  2.362E-02  2.489E+01  1.001E+00 -1.230E-06  3.028E+02  3.023E+02
  3.990E-02  2.587E-02  2.489E+01  1.001E+00 -3.550E-06  3.025E+02  3.020E+02
  3.990E-02  2.812E-02  2.489E+01  1.001E+00 -5.784E-06  3.022E+02  3.018E+02
  3.990E-02  3.037E-02  2.489E+01  1.001E+00 -7.562E-06  3.020E+02  3.016E+02
  3.990E-02  3.262E-02  2.489E+01  1.001E+00 -8.629E-06  3.018E+02  3.014E+02
  3.990E-02  3.487E-02  2.489E+01  1.001E+00 -9.310E-06  3.016E+02  3.013E+02
  3.990E-02  3.712E-02  2.489E+01  1.001E+00 -9.047E-06  3.015E+02  3.012E+02
  3.990E-02  3.938E-02  2.489E+01  1.001E+00 -8.031E-06  3.014E+02  3.011E+02
  3.990E-02  4.163E-02  2.489E+01  1.001E+00 -6.087E-06  3.014E+02  3.011E+02
  3.990E-02  4.388E-02  2.489E+01  9.873E-01 -5.331E-06  3.013E+02  3.010E+02
  3.990E-02  4.500E-02  2.489E+01  0.000E+00  0.000E+00  3.013E+02  3.010E+02
  5.130E-02  0.000E+00  2.106E+01  0.000E+00  0.000E+00  3.099E+02  3.099E+02
  5.130E-02  1.125E-03  2.106E+01  9.873E-01  7.520E-07  3.094E+02  3.091E+02
  5.130E-02  3.375E-03  2.106E+01  1.001E+00  5.717E-07  3.086E+02  3.082E+02
  5.130E-02  5.625E-03  2.106E+01  1.001E+00  1.197E-06  3.078E+02  3.074E+02
  5.130E-02  7.875E-03  2.106E+01  1.001E+00  1.788E-06  3.071E+02  3.066E+02
  5.130E-02  1.012E-02  2.106E+01  1.001E+00  1.919E-06  3.064E+02  3.059E+02
  5.130E-02  1.238E-02  2.106E+01  1.001E+00  1.522E-06  3.057E+02  3.052E+02
  5.130E-02  1.462E-02  2.106E+01  1.001E+00  1.236E-06  3.052E+02  3.046E+02
  5.130E-02  1.688E-02  2.106E+01  1.001E+00  9.576E-07  3.046E+02  3.041E+02
  5.130E-02  1.912E-02  2.106E+01  1.001E+00  5.899E-07  3.041E+02  3.036E+02
  5.130E-02  2.137E-02  2.106E+01  1.001E+00  2.069E-07  3.037E+02  3.032E+02
  5.130E-02  2.362E-02  2.106E+01  1.001E+00 -2.069E-07  3.033E+02  3.029E+02
  5.130E-02  2.587E-02  2.106E+01  1.001E+00 -5.899E-07  3.030E+02  3.026E+02
  5.130E-02  2.812E-02  2.106E+01  1.001E+00 -9.576E-07  3.027E+02  3.023E+02
  5.130E-02  3.037E-02  2.106E+01  1.001E+00 -1.236E-06  3.025E+02  3.021E+02
  5.130E-02  3.262E-02  2.106E+01  1.001E+00 -1.522E-06  3.023E+02  3.019E+02
  5.130E-02  3.487E-02  2.106E+01  1.001E+00 -1.919E-06  3.021E+02  3.017E+02
  5.130E-02  3.712E-02  2.106E+01  1.001E+00 -1.788E-06  3.020E+02  3.016E+02
  5.130E-02  3.938E-02  2.106E+01  1.001E+00 -1.197E-06  3.019E+02  3.015E+02
  5.130E-02  4.163E-02  2.106E+01  1.001E+00 -5.717E-07  3.018E+02  3.015E+02
  5.130E-02  4.388E-02  2.106E+01  9.873E-01 -7.520E-07  3.018E+02  3.014E+02
  5.130E-02  4.500E-02  2.106E+01  0.000E+00  0.000E+00  3.018E+02  3.014E+02
  6.270E-02  0.000E+00  1.723E+01  0.000E+00  0.000E+00  3.101E+02  3.101E+02
  6.270E-02  1.125E-03  1.723E+01  9.874E-01 -4.207E-08  3.097E+02  3.094E+02
  6.270E-02  3.375E-03  1.723E+01  1.001E+00 -2.154E-07  3.089E+02  3.086E+02
  6.270E-02  5.625E-03  1.723E+01  1.001E+00 -3.633E-08  3.082E+02  3.078E+02
  6.270E-02  7.875E-03  1.723E+01  1.001E+00  9.071E-08  3.075E+02  3.071E+02
  6.270E-02  1.012E-02  1.723E+01  1.001E+00  1.047E-07  3.069E+02  3.064E+02
  6.270E-02  1.238E-02  1.723E+01  1.001E+00  6.027E-08  3.062E+02  3.058E+02
  6.270E-02  1.462E-02  1.723E+01  1.001E+00  9.302E-08  3.057E+02  3.052E+02
  6.270E-02  1.688E-02  1.723E+01  1.001E+00  1.008E-07  3.052E+02  3.047E+02
  6.270E-02  1.912E-02  1.723E+01  1.001E+00  6.368E-08  3.047E+02  3.042E+02
  6.270E-02  2.137E-02  1.723E+01  1.001E+00  2.248E-08  3.042E+02  3.038E+02
  6.270E-02  2.362E-02  1.723E+01  1.001E+00 -2.248E-08  3.039E+02  3.034E+02
  6.270E-02  2.587E-02  1.723E+01  1.001E+00 -6.368E-08  3.035E+02  3.031E+02
  6.270E-02  2.812E-02  1.723E+01  1.001E+00 -1.008E-07  3.032E+02  3.028E+02
  6.270E-02  3.037E-02  1.723E+01  1.001E+00 -9.302E-08  3.030E+02  3.026E+02
  6.270E-02  3.262E-02  1.723E+01  1.001E+00 -6.027E-08  3.028E+02  3.024E+02
  6.270E-02  3.487E-02  1.723E+01  1.001E+00 -1.047E-07  3.026E+02  3.022E+02
  6.270E-02  3.712E-02  1.723E+01  1.001E+00 -9.071E-08  3.024E+02  3.021E+02
  6.270E-02  3.938E-02  1.723E+01  1.001E+00  3.633E-08  3.023E+02  3.020E+02
  6.270E-02  4.163E-02  1.723E+01  1.001E+00  2.154E-07  3.023E+02  3.019E+02
  6.270E-02  4.388E-02  1.723E+01  9.874E-01  4.207E-08  3.022E+02  3.019E+02
  6.270E-02  4.500E-02  1.723E+01  0.000E+00  0.000E+00  3.022E+02  3.019E+02
  7.410E-02  0.000E+00  1.340E+01  0.000E+00  0.000E+00  3.103E+02  3.103E+02
  7.410E-02  1.125E-03  1.340E+01  9.874E-01 -7.248E-08  3.099E+02  3.097E+02
  7.410E-02  3.375E-03  1.340E+01  1.001E+00 -2.077E-07  3.092E+02  3.090E+02
  7.410E-02  5.625E-03  1.340E+01  1.001E+00 -1.713E-07  3.085E+02  3.082E+02
  7.410E-02  7.875E-03  1.340E+01  1.001E+00 -1.879E-07  3.079E+02  3.075E+02
  7.410E-02  1.012E-02  1.340E+01  1.001E+00 -1.281E-07  3.073E+02  3.069E+02
  7.410E-02  1.238E-02  1.340E+01  1.001E+00  5.427E-08  3.067E+02  3.063E+02
  7.410E-02  1.462E-02  1.340E+01  1.001E+00  7.827E-08  3.061E+02  3.057E+02
  7.410E-02  1.688E-02  1.340E+01  1.001E+00 -3.940E-08  3.056E+02  3.052E+02
  7.410E-02  1.912E-02  1.340E+01  1.001E+00 -5.346E-08  3.051E+02  3.047E+02
  7.410E-02  2.137E-02  1.340E+01  1.001E+00 -1.345E-08  3.047E+02  3.043E+02
  7.410E-02  2.362E-02  1.340E+01  1.001E+00  1.345E-08  3.043E+02  3.039E+02
  7.410E-02  2.587E-02  1.340E+01  1.001E+00  5.346E-08  3.040E+02  3.036E+02
  7.410E-02  2.812E-02  1.340E+01  1.001E+00  3.940E-08  3.037E+02  3.033E+02
  7.410E-02  3.037E-02  1.340E+01  1.001E+00 -7.827E-08  3.034E+02  3.030E+02
  7.410E-02  3.262E-02  1.340E+01  1.001E+00 -5.427E-08  3.032E+02  3.028E+02
  7.410E-02  3.487E-02  1.340E+01  1.001E+00  1.281E-07  3.030E+02  3.026E+02
  7.410E-02  3.712E-02  1.340E+01  1.001E+00  1.879E-07  3.029E+02  3.025E+02
  7.410E-02  3.938E-02  1.340E+01  1.001E+00  1.713E-07  3.028E+02  3.024E+02
  7.410E-02  4.163E-02  1.340E+01  1.001E+00  2.077E-07  3.027E+02  3.023E+02
  7.410E-02  4.388E-02  1.340E+01  9.874E-01  7.248E-08  3.027E+02  3.023E+02
  7.410E-02  4.500E-02  1.340E+01  0.000E+00  0.000E+00  3.027E+02  3.023E+02
  8.550E-02  0.000E+00  9.574E+00  0.000E+00  0.000E+00  3.105E+02  3.105E+02
  8.550E-02  1.125E-03  9.574E+00  9.874E-01 -8.047E-08  3.101E+02  3.099E+02
  8.550E-02  3.375E-03  9.574E+00  1.001E+00 -1.165E-07  3.095E+02  3.093E+02
  8.550E-02  5.625E-03  9.574E+00  1.001E+00 -1.232E-07  3.088E+02  3.086E+02
  8.550E-02  7.875E-03  9.574E+00  1.001E+00 -1.275E-07  3.082E+02  3.079E+02
  8.550E-02  1.012E-02  9.574E+00  1.001E+00 -6.276E-08  3.076E+02  3.073E+02
  8.550E-02  1.238E-02  9.574E+00  1.001E+00  1.092E-07  3.070E+02  3.067E+02
  8.550E-02  1.462E-02  9.574E+00  1.001E+00  1.254E-07  3.065E+02  3.062E+02
  8.550E-02  1.688E-02  9.574E+00  1.001E+00 -1.258E-08  3.060E+02  3.057E+02
  8.550E-02  1.912E-02  9.574E+00  1.001E+00 -4.491E-08  3.056E+02  3.052E+02
  8.550E-02  2.137E-02  9.574E+00  1.001E+00 -1.036E-08  3.052E+02  3.048E+02
  8.550E-02  2.362E-02  9.574E+00  1.001E+00  1.036E-08  3.048E+02  3.044E+02
  8.550E-02  2.587E-02  9.574E+00  1.001E+00  4.491E-08  3.045E+02  3.041E+02
  8.550E-02  2.812E-02  9.574E+00  1.001E+00  1.258E-08  3.042E+02  3.038E+02
  8.550E-02  3.037E-02  9.574E+00  1.001E+00 -1.254E-07  3.039E+02  3.035E+02
  8.550E-02  3.262E-02  9.574E+00  1.001E+00 -1.092E-07  3.037E+02  3.033E+02
  8.550E-02  3.487E-02  9.574E+00  1.001E+00  6.276E-08  3.035E+02  3.031E+02
  8.550E-02  3.712E-02  9.574E+00  1.001E+00  1.275E-07  3.033E+02  3.030E+02
  8.550E-02  3.938E-02  9.574E+00  1.001E+00  1.232E-07  3.032E+02  3.029E+02
  8.550E-02  4.163E-02  9.574E+00  1.001E+00  1.165E-07  3.032E+02  3.028E+02
  8.550E-02  4.388E-02  9.574E+00  9.874E-01  8.047E-08  3.031E+02  3.028E+02
  8.550E-02  4.500E-02  9.574E+00  0.000E+00  0.000E+00  3.031E+02  3.028E+02
  9.690E-02  0.000E+00  5.745E+00  0.000E+00  0.000E+00  3.106E+02  3.106E+02
  9.690E-02  1.125E-03  5.745E+00  9.875E-01  5.955E-08  3.102E+02  3.101E+02
  9.690E-02  3.375E-03  5.745E+00  1.001E+00  1.707E-08  3.096E+02  3.095E+02
  9.690E-02  5.625E-03  5.745E+00  1.001E+00 -4.750E-08  3.090E+02  3.088E+02
  9.690E-02  7.875E-03  5.745E+00  1.001E+00 -5.565E-08  3.084E+02  3.082E+02
  9.690E-02  1.012E-02  5.745E+00  1.001E+00 -2.228E-08  3.079E+02  3.076E+02
  9.690E-02  1.238E-02  5.745E+00  1.001E+00  8.021E-08  3.073E+02  3.071E+02
  9.690E-02  1.462E-02  5.745E+00  1.001E+00  8.622E-08  3.068E+02  3.065E+02
  9.690E-02  1.688E-02  5.745E+00  1.001E+00  3.537E-11  3.064E+02  3.060E+02
  9.690E-02  1.912E-02  5.745E+00  1.001E+00 -2.139E-08  3.059E+02  3.056E+02
  9.690E-02  2.137E-02  5.745E+00  1.001E+00 -6.404E-09  3.055E+02  3.052E+02
  9.690E-02  2.362E-02  5.745E+00  1.001E+00  6.405E-09  3.052E+02  3.048E+02
  9.690E-02  2.587E-02  5.745E+00  1.001E+00  2.139E-08  3.048E+02  3.045E+02
  9.690E-02  2.812E-02  5.745E+00  1.001E+00 -3.532E-11  3.045E+02  3.042E+02
  9.690E-02  3.037E-02  5.745E+00  1.001E+00 -8.622E-08  3.043E+02  3.039E+02
  9.690E-02  3.262E-02  5.745E+00  1.001E+00 -8.021E-08  3.041E+02  3.037E+02
  9.690E-02  3.487E-02  5.745E+00  1.001E+00  2.228E-08  3.039E+02  3.035E+02
  9.690E-02  3.712E-02  5.745E+00  1.001E+00  5.565E-08  3.037E+02  3.034E+02
  9.690E-02  3.938E-02  5.745E+00  1.001E+00  4.750E-08  3.036E+02  3.033E+02
  9.690E-02  4.163E-02  5.745E+00  1.001E+00 -1.707E-08  3.036E+02  3.032E+02
  9.690E-02  4.388E-02  5.745E+00  9.875E-01 -5.955E-08  3.035E+02  3.032E+02
  9.690E-02  4.500E-02  5.745E+00  0.000E+00  0.000E+00  3.035E+02  3.032E+02
  1.083E-01  0.000E+00  1.915E+00  0.000E+00  0.000E+00  3.106E+02  3.106E+02
  1.083E-01  1.125E-03  1.915E+00  9.876E-01  3.065E-09  3.103E+02  3.103E+02
  1.083E-01  3.375E-03  1.915E+00  1.001E+00  4.776E-08  3.098E+02  3.097E+02
  1.083E-01  5.625E-03  1.915E+00  1.001E+00  2.214E-09  3.092E+02  3.091E+02
  1.083E-01  7.875E-03  1.915E+00  1.001E+00 -1.098E-08  3.086E+02  3.085E+02
  1.083E-01  1.012E-02  1.915E+00  1.001E+00 -2.398E-08  3.081E+02  3.080E+02
  1.083E-01  1.238E-02  1.915E+00  1.001E+00 -9.795E-09  3.076E+02  3.074E+02
  1.083E-01  1.462E-02  1.915E+00  1.001E+00 -6.213E-09  3.071E+02  3.070E+02
  1.083E-01  1.688E-02  1.915E+00  1.001E+00 -1.439E-08  3.067E+02  3.065E+02
  1.083E-01  1.912E-02  1.915E+00  1.001E+00 -1.135E-08  3.063E+02  3.061E+02
  1.083E-01  2.137E-02  1.915E+00  1.001E+00 -3.675E-09  3.059E+02  3.057E+02
  1.083E-01  2.362E-02  1.915E+00  1.001E+00  3.675E-09  3.055E+02  3.053E+02
  1.083E-01  2.587E-02  1.915E+00  1.001E+00  1.135E-08  3.052E+02  3.050E+02
  1.083E-01  2.812E-02  1.915E+00  1.001E+00  1.439E-08  3.049E+02  3.047E+02
  1.083E-01  3.037E-02  1.915E+00  1.001E+00  6.213E-09  3.047E+02  3.044E+02
  1.083E-01  3.262E-02  1.915E+00  1.001E+00  9.795E-09  3.044E+02  3.042E+02
  1.083E-01  3.487E-02  1.915E+00  1.001E+00  2.398E-08  3.043E+02  3.040E+02
  1.083E-01  3.712E-02  1.915E+00  1.001E+00  1.098E-08  3.041E+02  3.039E+02
  1.083E-01  3.938E-02  1.915E+00  1.001E+00 -2.214E-09  3.040E+02  3.038E+02
  1.083E-01  4.163E-02  1.915E+00  1.001E+00 -4.776E-08  3.039E+02  3.037E+02
  1.083E-01  4.388E-02  1.915E+00  9.876E-01 -3.065E-09  3.039E+02  3.037E+02
  1.083E-01  4.500E-02  1.915E+00  0.000E+00  0.000E+00  3.039E+02  3.037E+02
  1.140E-01  0.000E+00  1.915E+00  0.000E+00  0.000E+00  3.106E+02  3.106E+02
  1.140E-01  1.125E-03  0.000E+00  9.876E-01  3.065E-09  3.103E+02  3.103E+02
  1.140E-01  3.375E-03  0.000E+00  1.001E+00  4.776E-08  3.098E+02  3.097E+02
  1.140E-01  5.625E-03  0.000E+00  1.001E+00  2.214E-09  3.092E+02  3.091E+02
  1.140E-01  7.875E-03  0.000E+00  1.001E+00 -1.098E-08  3.086E+02  3.085E+02
  1.140E-01  1.012E-02  0.000E+00  1.001E+00 -2.398E-08  3.081E+02  3.080E+02
  1.140E-01  1.238E-02  0.000E+00  1.001E+00 -9.795E-09  3.076E+02  3.074E+02
  1.140E-01  1.462E-02  0.000E+00  1.001E+00 -6.213E-09  3.071E+02  3.070E+02
  1.140E-01  1.688E-02  0.000E+00  1.001E+00 -1.439E-08  3.067E+02  3.065E+02
  1.140E-01  1.912E-02  0.000E+00  1.001E+00 -1.135E-08  3.063E+02  3.061E+02
  1.140E-01  2.137E-02  0.000E+00  1.001E+00 -3.675E-09  3.059E+02  3.057E+02
  1.140E-01  2.362E-02  0.000E+00  1.001E+00  3.675E-09  3.055E+02  3.053E+02
  1.140E-01  2.587E-02  0.000E+00  1.001E+00  1.135E-08  3.052E+02  3.050E+02
  1.140E-01  2.812E-02  0.000E+00  1.001E+00  1.439E-08  3.049E+02  3.047E+02
  1.140E-01  3.037E-02  0.000E+00  1.001E+00  6.213E-09  3.047E+02  3.044E+02
  1.140E-01  3.262E-02  0.000E+00  1.001E+00  9.795E-09  3.044E+02  3.042E+02
  1.140E-01  3.487E-02  0.000E+00  1.001E+00  2.398E-08  3.043E+02  3.040E+02
  1.140E-01  3.712E-02  0.000E+00  1.001E+00  1.098E-08  3.041E+02  3.039E+02
  1.140E-01  3.938E-02  0.000E+00  1.001E+00 -2.214E-09  3.040E+02  3.038E+02
  1.140E-01  4.163E-02  0.000E+00  1.001E+00 -4.776E-08  3.039E+02  3.037E+02
  1.140E-01  4.388E-02  0.000E+00  9.876E-01 -3.065E-09  3.039E+02  3.037E+02
  1.140E-01  4.500E-02  1.915E+00  0.000E+00  0.000E+00  3.039E+02  3.037E+02
