VARIABLES="XP","YP","P","U","V","TS","TF"
ZONE T="Zone 001"I=    82 J=    22 F=POINT
  0.000E+00  0.000E+00  1.019E+05  0.000E+00  0.000E+00  7.474E-01  7.474E-01
  0.000E+00  3.156E-03  1.019E+05  0.000E+00  0.000E+00  7.474E-01  7.474E-01
  0.000E+00  9.469E-03  1.019E+05  0.000E+00  0.000E+00  7.474E-01  7.474E-01
  0.000E+00  1.578E-02  1.019E+05  0.000E+00  0.000E+00  7.474E-01  7.474E-01
  0.000E+00  2.209E-02  1.019E+05  0.000E+00  0.000E+00  7.474E-01  7.474E-01
  0.000E+00  2.841E-02  1.019E+05  0.000E+00  0.000E+00  7.474E-01  7.474E-01
  0.000E+00  3.472E-02  1.019E+05  0.000E+00  0.000E+00  7.474E-01  7.474E-01
  0.000E+00  4.103E-02  1.019E+05  0.000E+00  0.000E+00  7.474E-01  7.474E-01
  0.000E+00  4.734E-02  1.019E+05  0.000E+00  0.000E+00  7.474E-01  7.474E-01
  0.000E+00  5.366E-02  1.019E+05  0.000E+00  0.000E+00  7.474E-01  7.474E-01
  0.000E+00  5.997E-02  1.018E+05  0.000E+00  0.000E+00  7.474E-01  7.474E-01
  0.000E+00  6.628E-02  1.018E+05  0.000E+00  0.000E+00  7.474E-01  7.474E-01
  0.000E+00  7.259E-02  1.018E+05  0.000E+00  0.000E+00  7.474E-01  7.474E-01
  0.000E+00  7.891E-02  1.018E+05  0.000E+00  0.000E+00  7.474E-01  7.474E-01
  0.000E+00  8.522E-02  1.018E+05  0.000E+00  0.000E+00  7.474E-01  7.474E-01
  0.000E+00  9.153E-02  1.018E+05  0.000E+00  0.000E+00  7.474E-01  7.474E-01
  0.000E+00  9.784E-02  1.018E+05  0.000E+00  0.000E+00  7.474E-01  7.474E-01
  0.000E+00  1.042E-01  1.018E+05  0.000E+00  0.000E+00  7.474E-01  7.474E-01
  0.000E+00  1.105E-01  1.018E+05  0.000E+00  0.000E+00  7.474E-01  7.474E-01
  0.000E+00  1.168E-01  1.018E+05  0.000E+00  0.000E+00  7.474E-01  7.474E-01
  0.000E+00  1.231E-01  1.018E+05  0.000E+00  0.000E+00  7.474E-01  7.474E-01
  0.000E+00  1.294E-01  1.018E+05  0.000E+00  0.000E+00  7.474E-01  7.474E-01
  0.000E+00  1.357E-01  1.018E+05  0.000E+00  0.000E+00  7.474E-01  7.474E-01
  0.000E+00  1.420E-01  1.017E+05  0.000E+00  0.000E+00  7.474E-01  7.474E-01
  0.000E+00  1.483E-01  1.017E+05  0.000E+00  0.000E+00  7.474E-01  7.474E-01
  0.000E+00  1.547E-01  1.017E+05  0.000E+00  0.000E+00  7.474E-01  7.474E-01
  0.000E+00  1.610E-01  1.017E+05  0.000E+00  0.000E+00  7.474E-01  7.474E-01
  0.000E+00  1.673E-01  1.017E+05  0.000E+00  0.000E+00  7.474E-01  7.474E-01
  0.000E+00  1.736E-01  1.017E+05  0.000E+00  0.000E+00  7.474E-01  7.474E-01
  0.000E+00  1.799E-01  1.017E+05  0.000E+00  0.000E+00  7.474E-01  7.474E-01
  0.000E+00  1.862E-01  1.017E+05  0.000E+00  0.000E+00  7.474E-01  7.474E-01
  0.000E+00  1.925E-01  1.017E+05  0.000E+00  0.000E+00  7.474E-01  7.474E-01
  0.000E+00  1.988E-01  1.017E+05  0.000E+00  0.000E+00  7.474E-01  7.474E-01
  0.000E+00  2.052E-01  1.017E+05  0.000E+00  0.000E+00  7.474E-01  7.474E-01
  0.000E+00  2.115E-01  1.017E+05  0.000E+00  0.000E+00  7.474E-01  7.474E-01
  0.000E+00  2.178E-01  1.017E+05  0.000E+00  0.000E+00  7.474E-01  7.474E-01
  0.000E+00  2.241E-01  1.017E+05  0.000E+00  0.000E+00  7.474E-01  7.474E-01
  0.000E+00  2.304E-01  1.016E+05  0.000E+00  0.000E+00  7.474E-01  7.474E-01
  0.000E+00  2.367E-01  1.016E+05  0.000E+00  0.000E+00  7.474E-01  7.474E-01
  0.000E+00  2.430E-01  1.016E+05  0.000E+00  0.000E+00  7.475E-01  7.475E-01
  0.000E+00  2.493E-01  1.016E+05  0.000E+00  0.000E+00  7.475E-01  7.475E-01
  0.000E+00  2.557E-01  1.016E+05  0.000E+00  0.000E+00  7.475E-01  7.475E-01
  0.000E+00  2.620E-01  1.016E+05  0.000E+00  0.000E+00  7.476E-01  7.476E-01
  0.000E+00  2.683E-01  1.016E+05  0.000E+00  0.000E+00  7.476E-01  7.476E-01
  0.000E+00  2.746E-01  1.016E+05  0.000E+00  0.000E+00  7.477E-01  7.477E-01
  0.000E+00  2.809E-01  1.016E+05  0.000E+00  0.000E+00  7.478E-01  7.478E-01
  0.000E+00  2.872E-01  1.016E+05  0.000E+00  0.000E+00  7.479E-01  7.479E-01
  0.000E+00  2.935E-01  1.016E+05  0.000E+00  0.000E+00  7.481E-01  7.480E-01
  0.000E+00  2.998E-01  1.016E+05  0.000E+00  0.000E+00  7.483E-01  7.483E-01
  0.000E+00  3.062E-01  1.016E+05  0.000E+00  0.000E+00  7.485E-01  7.485E-01
  0.000E+00  3.125E-01  1.015E+05  0.000E+00  0.000E+00  7.489E-01  7.489E-01
  0.000E+00  3.188E-01  1.015E+05  0.000E+00  0.000E+00  7.493E-01  7.493E-01
  0.000E+00  3.251E-01  1.015E+05  0.000E+00  0.000E+00  7.499E-01  7.498E-01
  0.000E+00  3.314E-01  1.015E+05  0.000E+00  0.000E+00  7.506E-01  7.505E-01
  0.000E+00  3.377E-01  1.015E+05  0.000E+00  0.000E+00  7.515E-01  7.514E-01
  0.000E+00  3.440E-01  1.015E+05  0.000E+00  0.000E+00  7.526E-01  7.525E-01
  0.000E+00  3.503E-01  1.015E+05  0.000E+00  0.000E+00  7.539E-01  7.539E-01
  0.000E+00  3.567E-01  1.015E+05  0.000E+00  0.000E+00  7.556E-01  7.555E-01
  0.000E+00  3.630E-01  1.015E+05  0.000E+00  0.000E+00  7.577E-01  7.576E-01
  0.000E+00  3.693E-01  1.015E+05  0.000E+00  0.000E+00  7.602E-01  7.601E-01
  0.000E+00  3.756E-01  1.015E+05  0.000E+00  0.000E+00  7.632E-01  7.631E-01
  0.000E+00  3.819E-01  1.015E+05  0.000E+00  0.000E+00  7.669E-01  7.667E-01
  0.000E+00  3.882E-01  1.015E+05  0.000E+00  0.000E+00  7.713E-01  7.711E-01
  0.000E+00  3.945E-01  1.015E+05  0.000E+00  0.000E+00  7.765E-01  7.762E-01
  0.000E+00  4.008E-01  1.014E+05  0.000E+00  0.000E+00  7.826E-01  7.823E-01
  0.000E+00  4.072E-01  1.014E+05  0.000E+00  0.000E+00  7.898E-01  7.895E-01
  0.000E+00  4.135E-01  1.014E+05  0.000E+00  0.000E+00  7.983E-01  7.979E-01
  0.000E+00  4.198E-01  1.014E+05  0.000E+00  0.000E+00  8.081E-01  8.076E-01
  0.000E+00  4.261E-01  1.014E+05  0.000E+00  0.000E+00  8.194E-01  8.189E-01
  0.000E+00  4.324E-01  1.014E+05  0.000E+00  0.000E+00  8.324E-01  8.318E-01
  0.000E+00  4.387E-01  1.014E+05  0.000E+00  0.000E+00  8.472E-01  8.465E-01
  0.000E+00  4.450E-01  1.014E+05  0.000E+00  0.000E+00  8.640E-01  8.633E-01
  0.000E+00  4.513E-01  1.014E+05  0.000E+00  0.000E+00  8.830E-01  8.821E-01
  0.000E+00  4.577E-01  1.014E+05  0.000E+00  0.000E+00  9.042E-01  9.033E-01
  0.000E+00  4.640E-01  1.014E+05  0.000E+00  0.000E+00  9.279E-01  9.268E-01
  0.000E+00  4.703E-01  1.014E+05  0.000E+00  0.000E+00  9.539E-01  9.527E-01
  0.000E+00  4.766E-01  1.014E+05  0.000E+00  0.000E+00  9.824E-01  9.810E-01
  0.000E+00  4.829E-01  1.014E+05  0.000E+00  0.000E+00  1.013E+00  1.011E+00
  0.000E+00  4.892E-01  1.013E+05  0.000E+00  0.000E+00  1.044E+00  1.043E+00
  0.000E+00  4.955E-01  1.013E+05  0.000E+00  0.000E+00  1.075E+00  1.073E+00
  0.000E+00  5.018E-01  1.013E+05  0.000E+00  0.000E+00  1.097E+00  1.096E+00
  0.000E+00  5.050E-01  1.013E+05  0.000E+00  0.000E+00  1.097E+00  1.096E+00
  4.000E-03  0.000E+00  1.019E+05  8.159E-07  6.500E-02  7.474E-01  7.474E-01
  4.000E-03  3.156E-03  1.019E+05  8.159E-07  6.498E-02  7.474E-01  7.474E-01
  4.000E-03  9.469E-03  1.019E+05  3.451E-07  6.499E-02  7.474E-01  7.474E-01
  4.000E-03  1.578E-02  1.019E+05  2.431E-07  6.500E-02  7.474E-01  7.474E-01
  4.000E-03  2.209E-02  1.019E+05  2.385E-07  6.499E-02  7.474E-01  7.474E-01
  4.000E-03  2.841E-02  1.019E+05  7.592E-07  6.499E-02  7.474E-01  7.474E-01
  4.000E-03  3.472E-02  1.019E+05  1.433E-06  6.500E-02  7.474E-01  7.474E-01
  4.000E-03  4.103E-02  1.019E+05  7.270E-07  6.500E-02  7.474E-01  7.474E-01
  4.000E-03  4.734E-02  1.019E+05  1.560E-07  6.500E-02  7.474E-01  7.474E-01
  4.000E-03  5.366E-02  1.019E+05  7.211E-08  6.499E-02  7.474E-01  7.474E-01
  4.000E-03  5.997E-02  1.018E+05  1.917E-08  6.499E-02  7.474E-01  7.474E-01
  4.000E-03  6.628E-02  1.018E+05  6.982E-09  6.499E-02  7.474E-01  7.474E-01
  4.000E-03  7.259E-02  1.018E+05  2.514E-09  6.499E-02  7.474E-01  7.474E-01
  4.000E-03  7.891E-02  1.018E+05  1.418E-09  6.499E-02  7.474E-01  7.474E-01
  4.000E-03  8.522E-02  1.018E+05  1.084E-09  6.499E-02  7.474E-01  7.474E-01
  4.000E-03  9.153E-02  1.018E+05  9.356E-10  6.500E-02  7.474E-01  7.474E-01
  4.000E-03  9.784E-02  1.018E+05  8.274E-10  6.500E-02  7.474E-01  7.474E-01
  4.000E-03  1.042E-01  1.018E+05  7.197E-10  6.500E-02  7.474E-01  7.474E-01
  4.000E-03  1.105E-01  1.018E+05  5.953E-10  6.499E-02  7.474E-01  7.474E-01
  4.000E-03  1.168E-01  1.018E+05  4.932E-10  6.499E-02  7.474E-01  7.474E-01
  4.000E-03  1.231E-01  1.018E+05  3.827E-10  6.499E-02  7.474E-01  7.474E-01
  4.000E-03  1.294E-01  1.018E+05  3.216E-10  6.499E-02  7.474E-01  7.474E-01
  4.000E-03  1.357E-01  1.018E+05  3.237E-10  6.499E-02  7.474E-01  7.474E-01
  4.000E-03  1.420E-01  1.017E+05  2.783E-10  6.499E-02  7.474E-01  7.474E-01
  4.000E-03  1.483E-01  1.017E+05  2.049E-10  6.499E-02  7.474E-01  7.474E-01
  4.000E-03  1.547E-01  1.017E+05  1.549E-10  6.499E-02  7.474E-01  7.474E-01
  4.000E-03  1.610E-01  1.017E+05  1.205E-10  6.500E-02  7.474E-01  7.474E-01
  4.000E-03  1.673E-01  1.017E+05  7.138E-11  6.500E-02  7.474E-01  7.474E-01
  4.000E-03  1.736E-01  1.017E+05  2.525E-11  6.500E-02  7.474E-01  7.474E-01
  4.000E-03  1.799E-01  1.017E+05 -9.690E-12  6.499E-02  7.474E-01  7.474E-01
  4.000E-03  1.862E-01  1.017E+05  1.625E-11  6.499E-02  7.474E-01  7.474E-01
  4.000E-03  1.925E-01  1.017E+05  5.059E-11  6.499E-02  7.474E-01  7.474E-01
  4.000E-03  1.988E-01  1.017E+05  3.441E-11  6.499E-02  7.474E-01  7.474E-01
  4.000E-03  2.052E-01  1.017E+05  3.408E-11  6.499E-02  7.474E-01  7.474E-01
  4.000E-03  2.115E-01  1.017E+05  2.689E-11  6.499E-02  7.474E-01  7.474E-01
  4.000E-03  2.178E-01  1.017E+05  1.820E-11  6.499E-02  7.474E-01  7.474E-01
  4.000E-03  2.241E-01  1.017E+05  9.372E-12  6.499E-02  7.474E-01  7.474E-01
  4.000E-03  2.304E-01  1.016E+05 -1.219E-11  6.500E-02  7.474E-01  7.474E-01
  4.000E-03  2.367E-01  1.016E+05 -2.517E-11  6.500E-02  7.474E-01  7.474E-01
  4.000E-03  2.430E-01  1.016E+05  7.606E-12  6.500E-02  7.475E-01  7.475E-01
  4.000E-03  2.493E-01  1.016E+05 -8.097E-12  6.499E-02  7.475E-01  7.475E-01
  4.000E-03  2.557E-01  1.016E+05 -5.077E-12  6.499E-02  7.475E-01  7.475E-01
  4.000E-03  2.620E-01  1.016E+05  2.176E-11  6.499E-02  7.476E-01  7.476E-01
  4.000E-03  2.683E-01  1.016E+05  5.729E-12  6.499E-02  7.476E-01  7.476E-01
  4.000E-03  2.746E-01  1.016E+05  1.485E-11  6.499E-02  7.477E-01  7.477E-01
  4.000E-03  2.809E-01  1.016E+05  2.294E-11  6.499E-02  7.478E-01  7.478E-01
  4.000E-03  2.872E-01  1.016E+05  2.276E-11  6.500E-02  7.479E-01  7.479E-01
  4.000E-03  2.935E-01  1.016E+05 -2.887E-11  6.500E-02  7.481E-01  7.480E-01
  4.000E-03  2.998E-01  1.016E+05 -3.055E-11  6.500E-02  7.483E-01  7.483E-01
  4.000E-03  3.062E-01  1.016E+05 -1.712E-11  6.499E-02  7.485E-01  7.485E-01
  4.000E-03  3.125E-01  1.015E+05  2.770E-12  6.499E-02  7.489E-01  7.489E-01
  4.000E-03  3.188E-01  1.015E+05  3.518E-11  6.499E-02  7.493E-01  7.493E-01
  4.000E-03  3.251E-01  1.015E+05  8.698E-12  6.499E-02  7.499E-01  7.498E-01
  4.000E-03  3.314E-01  1.015E+05  3.143E-12  6.499E-02  7.506E-01  7.505E-01
  4.000E-03  3.377E-01  1.015E+05 -1.282E-13  6.499E-02  7.515E-01  7.514E-01
  4.000E-03  3.440E-01  1.015E+05  3.372E-12  6.499E-02  7.526E-01  7.525E-01
  4.000E-03  3.503E-01  1.015E+05  9.765E-12  6.499E-02  7.539E-01  7.539E-01
  4.000E-03  3.567E-01  1.015E+05  1.501E-11  6.500E-02  7.556E-01  7.555E-01
  4.000E-03  3.630E-01  1.015E+05 -2.694E-11  6.500E-02  7.577E-01  7.576E-01
  4.000E-03  3.693E-01  1.015E+05 -2.878E-11  6.500E-02  7.602E-01  7.601E-01
  4.000E-03  3.756E-01  1.015E+05 -2.169E-11  6.499E-02  7.632E-01  7.631E-01
  4.000E-03  3.819E-01  1.015E+05 -2.611E-12  6.499E-02  7.669E-01  7.667E-01
  4.000E-03  3.882E-01  1.015E+05  3.370E-11  6.499E-02  7.713E-01  7.711E-01
  4.000E-03  3.945E-01  1.015E+05  1.384E-11  6.499E-02  7.765E-01  7.762E-01
  4.000E-03  4.008E-01  1.014E+05  8.390E-12  6.499E-02  7.826E-01  7.823E-01
  4.000E-03  4.072E-01  1.014E+05 -2.925E-12  6.499E-02  7.898E-01  7.895E-01
  4.000E-03  4.135E-01  1.014E+05 -9.708E-12  6.499E-02  7.983E-01  7.979E-01
  4.000E-03  4.198E-01  1.014E+05 -7.994E-12  6.499E-02  8.081E-01  8.076E-01
  4.000E-03  4.261E-01  1.014E+05 -1.517E-11  6.500E-02  8.194E-01  8.189E-01
  4.000E-03  4.324E-01  1.014E+05  1.446E-12  6.500E-02  8.324E-01  8.318E-01
  4.000E-03  4.387E-01  1.014E+05  1.411E-11  6.500E-02  8.472E-01  8.465E-01
  4.000E-03  4.450E-01  1.014E+05 -2.758E-11  6.499E-02  8.640E-01  8.633E-01
  4.000E-03  4.513E-01  1.014E+05 -9.278E-12  6.499E-02  8.830E-01  8.821E-01
  4.000E-03  4.577E-01  1.014E+05  1.585E-11  6.499E-02  9.042E-01  9.033E-01
  4.000E-03  4.640E-01  1.014E+05 -2.404E-12  6.499E-02  9.279E-01  9.268E-01
  4.000E-03  4.703E-01  1.014E+05  6.441E-12  6.499E-02  9.539E-01  9.527E-01
  4.000E-03  4.766E-01  1.014E+05  1.110E-11  6.499E-02  9.824E-01  9.810E-01
  4.000E-03  4.829E-01  1.014E+05  8.572E-12  6.499E-02  1.013E+00  1.011E+00
  4.000E-03  4.892E-01  1.013E+05 -1.004E-11  6.499E-02  1.044E+00  1.043E+00
  4.000E-03  4.955E-01  1.013E+05 -4.070E-11  6.499E-02  1.075E+00  1.073E+00
  4.000E-03  5.018E-01  1.013E+05 -5.681E-11  6.500E-02  1.097E+00  1.096E+00
  4.000E-03  5.050E-01  1.013E+05 -5.681E-11  6.500E-02  1.097E+00  1.096E+00
  1.200E-02  0.000E+00  1.019E+05  1.109E-06  6.500E-02  7.469E-01  7.469E-01
  1.200E-02  3.156E-03  1.019E+05  1.109E-06  6.498E-02  7.469E-01  7.469E-01
  1.200E-02  9.469E-03  1.019E+05  4.972E-07  6.500E-02  7.469E-01  7.469E-01
  1.200E-02  1.578E-02  1.019E+05  2.964E-07  6.500E-02  7.469E-01  7.469E-01
  1.200E-02  2.209E-02  1.019E+05 -4.992E-07  6.500E-02  7.469E-01  7.469E-01
  1.200E-02  2.841E-02  1.019E+05  2.598E-06  6.500E-02  7.469E-01  7.469E-01
  1.200E-02  3.472E-02  1.019E+05  8.146E-06  6.500E-02  7.469E-01  7.469E-01
  1.200E-02  4.103E-02  1.019E+05  2.552E-06  6.501E-02  7.469E-01  7.469E-01
  1.200E-02  4.734E-02  1.019E+05 -6.636E-07  6.500E-02  7.469E-01  7.469E-01
  1.200E-02  5.366E-02  1.019E+05 -2.332E-08  6.500E-02  7.469E-01  7.469E-01
  1.200E-02  5.997E-02  1.018E+05 -4.739E-08  6.500E-02  7.469E-01  7.469E-01
  1.200E-02  6.628E-02  1.018E+05 -1.261E-08  6.500E-02  7.469E-01  7.469E-01
  1.200E-02  7.259E-02  1.018E+05 -4.136E-09  6.500E-02  7.469E-01  7.469E-01
  1.200E-02  7.891E-02  1.018E+05  4.655E-10  6.500E-02  7.469E-01  7.469E-01
  1.200E-02  8.522E-02  1.018E+05  2.095E-09  6.500E-02  7.469E-01  7.469E-01
  1.200E-02  9.153E-02  1.018E+05  2.520E-09  6.500E-02  7.469E-01  7.469E-01
  1.200E-02  9.784E-02  1.018E+05  2.444E-09  6.501E-02  7.469E-01  7.469E-01
  1.200E-02  1.042E-01  1.018E+05  2.203E-09  6.500E-02  7.469E-01  7.469E-01
  1.200E-02  1.105E-01  1.018E+05  1.893E-09  6.500E-02  7.469E-01  7.469E-01
  1.200E-02  1.168E-01  1.018E+05  1.607E-09  6.500E-02  7.469E-01  7.469E-01
  1.200E-02  1.231E-01  1.018E+05  1.321E-09  6.500E-02  7.469E-01  7.469E-01
  1.200E-02  1.294E-01  1.018E+05  1.113E-09  6.500E-02  7.469E-01  7.469E-01
  1.200E-02  1.357E-01  1.018E+05  9.060E-10  6.500E-02  7.469E-01  7.469E-01
  1.200E-02  1.420E-01  1.017E+05  6.528E-10  6.500E-02  7.469E-01  7.469E-01
  1.200E-02  1.483E-01  1.017E+05  4.391E-10  6.500E-02  7.469E-01  7.469E-01
  1.200E-02  1.547E-01  1.017E+05  2.861E-10  6.500E-02  7.469E-01  7.469E-01
  1.200E-02  1.610E-01  1.017E+05  1.965E-10  6.500E-02  7.469E-01  7.469E-01
  1.200E-02  1.673E-01  1.017E+05  1.293E-10  6.501E-02  7.469E-01  7.469E-01
  1.200E-02  1.736E-01  1.017E+05  9.975E-11  6.500E-02  7.469E-01  7.469E-01
  1.200E-02  1.799E-01  1.017E+05  1.055E-10  6.500E-02  7.469E-01  7.469E-01
  1.200E-02  1.862E-01  1.017E+05  1.717E-10  6.500E-02  7.469E-01  7.469E-01
  1.200E-02  1.925E-01  1.017E+05  2.046E-10  6.500E-02  7.469E-01  7.469E-01
  1.200E-02  1.988E-01  1.017E+05  1.547E-10  6.500E-02  7.469E-01  7.469E-01
  1.200E-02  2.052E-01  1.017E+05  1.072E-10  6.500E-02  7.469E-01  7.469E-01
  1.200E-02  2.115E-01  1.017E+05  6.930E-11  6.500E-02  7.469E-01  7.469E-01
  1.200E-02  2.178E-01  1.017E+05  3.932E-11  6.500E-02  7.469E-01  7.469E-01
  1.200E-02  2.241E-01  1.017E+05  1.341E-11  6.500E-02  7.469E-01  7.469E-01
  1.200E-02  2.304E-01  1.016E+05 -4.173E-11  6.500E-02  7.469E-01  7.469E-01
  1.200E-02  2.367E-01  1.016E+05 -9.517E-11  6.501E-02  7.469E-01  7.469E-01
  1.200E-02  2.430E-01  1.016E+05 -7.750E-11  6.500E-02  7.470E-01  7.470E-01
  1.200E-02  2.493E-01  1.016E+05 -6.970E-11  6.500E-02  7.470E-01  7.470E-01
  1.200E-02  2.557E-01  1.016E+05 -4.240E-12  6.500E-02  7.470E-01  7.470E-01
  1.200E-02  2.620E-01  1.016E+05  8.171E-11  6.500E-02  7.471E-01  7.471E-01
  1.200E-02  2.683E-01  1.016E+05  9.501E-11  6.500E-02  7.471E-01  7.471E-01
  1.200E-02  2.746E-01  1.016E+05  8.753E-11  6.500E-02  7.472E-01  7.472E-01
  1.200E-02  2.809E-01  1.016E+05  5.635E-11  6.500E-02  7.473E-01  7.473E-01
  1.200E-02  2.872E-01  1.016E+05  1.420E-11  6.500E-02  7.474E-01  7.474E-01
  1.200E-02  2.935E-01  1.016E+05 -6.772E-11  6.501E-02  7.476E-01  7.475E-01
  1.200E-02  2.998E-01  1.016E+05 -7.358E-11  6.500E-02  7.478E-01  7.478E-01
  1.200E-02  3.062E-01  1.016E+05 -5.465E-11  6.500E-02  7.480E-01  7.480E-01
  1.200E-02  3.125E-01  1.015E+05 -3.021E-11  6.500E-02  7.484E-01  7.484E-01
  1.200E-02  3.188E-01  1.015E+05  9.507E-12  6.500E-02  7.488E-01  7.488E-01
  1.200E-02  3.251E-01  1.015E+05  7.303E-12  6.500E-02  7.494E-01  7.493E-01
  1.200E-02  3.314E-01  1.015E+05  2.710E-11  6.500E-02  7.501E-01  7.500E-01
  1.200E-02  3.377E-01  1.015E+05  4.393E-11  6.500E-02  7.510E-01  7.509E-01
  1.200E-02  3.440E-01  1.015E+05  4.833E-11  6.500E-02  7.521E-01  7.520E-01
  1.200E-02  3.503E-01  1.015E+05  4.420E-11  6.500E-02  7.534E-01  7.534E-01
  1.200E-02  3.567E-01  1.015E+05  2.398E-11  6.500E-02  7.551E-01  7.550E-01
  1.200E-02  3.630E-01  1.015E+05 -4.881E-11  6.501E-02  7.572E-01  7.571E-01
  1.200E-02  3.693E-01  1.015E+05 -6.136E-11  6.500E-02  7.597E-01  7.596E-01
  1.200E-02  3.756E-01  1.015E+05 -4.559E-11  6.500E-02  7.627E-01  7.626E-01
  1.200E-02  3.819E-01  1.015E+05 -1.484E-11  6.500E-02  7.664E-01  7.662E-01
  1.200E-02  3.882E-01  1.015E+05  1.630E-11  6.500E-02  7.708E-01  7.706E-01
  1.200E-02  3.945E-01  1.015E+05 -9.252E-12  6.500E-02  7.760E-01  7.757E-01
  1.200E-02  4.008E-01  1.014E+05 -6.259E-12  6.500E-02  7.821E-01  7.818E-01
  1.200E-02  4.072E-01  1.014E+05  1.800E-11  6.500E-02  7.893E-01  7.890E-01
  1.200E-02  4.135E-01  1.014E+05  4.783E-11  6.500E-02  7.978E-01  7.974E-01
  1.200E-02  4.198E-01  1.014E+05  6.689E-11  6.500E-02  8.076E-01  8.071E-01
  1.200E-02  4.261E-01  1.014E+05  3.003E-11  6.500E-02  8.189E-01  8.184E-01
  1.200E-02  4.324E-01  1.014E+05 -1.441E-11  6.501E-02  8.319E-01  8.313E-01
  1.200E-02  4.387E-01  1.014E+05 -5.515E-11  6.500E-02  8.467E-01  8.461E-01
  1.200E-02  4.450E-01  1.014E+05 -1.081E-10  6.500E-02  8.636E-01  8.628E-01
  1.200E-02  4.513E-01  1.014E+05 -4.301E-11  6.500E-02  8.825E-01  8.816E-01
  1.200E-02  4.577E-01  1.014E+05  3.979E-11  6.500E-02  9.038E-01  9.028E-01
  1.200E-02  4.640E-01  1.014E+05  5.790E-11  6.500E-02  9.274E-01  9.263E-01
  1.200E-02  4.703E-01  1.014E+05  5.546E-11  6.500E-02  9.535E-01  9.523E-01
  1.200E-02  4.766E-01  1.014E+05  1.699E-11  6.500E-02  9.819E-01  9.806E-01
  1.200E-02  4.829E-01  1.014E+05 -3.805E-11  6.500E-02  1.012E+00  1.011E+00
  1.200E-02  4.892E-01  1.013E+05 -8.408E-11  6.500E-02  1.044E+00  1.043E+00
  1.200E-02  4.955E-01  1.013E+05 -1.119E-10  6.500E-02  1.074E+00  1.073E+00
  1.200E-02  5.018E-01  1.013E+05 -1.244E-10  6.500E-02  1.097E+00  1.096E+00
  1.200E-02  5.050E-01  1.013E+05 -1.244E-10  6.500E-02  1.097E+00  1.096E+00
  2.000E-02  0.000E+00  1.019E+05  5.386E-07  6.500E-02  7.459E-01  7.459E-01
  2.000E-02  3.156E-03  1.019E+05  5.386E-07  6.498E-02  7.459E-01  7.459E-01
  2.000E-02  9.469E-03  1.019E+05  3.616E-07  6.500E-02  7.459E-01  7.459E-01
  2.000E-02  1.578E-02  1.019E+05  2.741E-07  6.500E-02  7.459E-01  7.459E-01
  2.000E-02  2.209E-02  1.019E+05 -4.735E-07  6.500E-02  7.459E-01  7.459E-01
  2.000E-02  2.841E-02  1.019E+05  2.660E-06  6.501E-02  7.459E-01  7.459E-01
  2.000E-02  3.472E-02  1.019E+05  8.158E-06  6.500E-02  7.459E-01  7.459E-01
  2.000E-02  4.103E-02  1.019E+05  2.610E-06  6.500E-02  7.459E-01  7.459E-01
  2.000E-02  4.734E-02  1.019E+05 -6.335E-07  6.500E-02  7.459E-01  7.459E-01
  2.000E-02  5.366E-02  1.019E+05 -5.721E-11  6.500E-02  7.459E-01  7.459E-01
  2.000E-02  5.997E-02  1.018E+05 -3.266E-08  6.500E-02  7.459E-01  7.459E-01
  2.000E-02  6.628E-02  1.018E+05 -2.594E-09  6.500E-02  7.459E-01  7.459E-01
  2.000E-02  7.259E-02  1.018E+05  2.691E-09  6.500E-02  7.459E-01  7.459E-01
  2.000E-02  7.891E-02  1.018E+05  5.297E-09  6.500E-02  7.459E-01  7.459E-01
  2.000E-02  8.522E-02  1.018E+05  5.629E-09  6.500E-02  7.459E-01  7.459E-01
  2.000E-02  9.153E-02  1.018E+05  5.199E-09  6.500E-02  7.459E-01  7.459E-01
  2.000E-02  9.784E-02  1.018E+05  4.469E-09  6.501E-02  7.459E-01  7.459E-01
  2.000E-02  1.042E-01  1.018E+05  3.724E-09  6.500E-02  7.459E-01  7.459E-01
  2.000E-02  1.105E-01  1.018E+05  3.096E-09  6.500E-02  7.459E-01  7.459E-01
  2.000E-02  1.168E-01  1.018E+05  2.541E-09  6.500E-02  7.459E-01  7.459E-01
  2.000E-02  1.231E-01  1.018E+05  2.074E-09  6.500E-02  7.459E-01  7.459E-01
  2.000E-02  1.294E-01  1.018E+05  1.645E-09  6.500E-02  7.459E-01  7.459E-01
  2.000E-02  1.357E-01  1.018E+05  1.218E-09  6.500E-02  7.459E-01  7.459E-01
  2.000E-02  1.420E-01  1.017E+05  8.944E-10  6.500E-02  7.459E-01  7.459E-01
  2.000E-02  1.483E-01  1.017E+05  6.499E-10  6.500E-02  7.459E-01  7.459E-01
  2.000E-02  1.547E-01  1.017E+05  4.650E-10  6.500E-02  7.459E-01  7.459E-01
  2.000E-02  1.610E-01  1.017E+05  3.539E-10  6.500E-02  7.459E-01  7.459E-01
  2.000E-02  1.673E-01  1.017E+05  3.033E-10  6.501E-02  7.459E-01  7.459E-01
  2.000E-02  1.736E-01  1.017E+05  2.872E-10  6.500E-02  7.459E-01  7.459E-01
  2.000E-02  1.799E-01  1.017E+05  2.765E-10  6.500E-02  7.459E-01  7.459E-01
  2.000E-02  1.862E-01  1.017E+05  2.647E-10  6.500E-02  7.459E-01  7.459E-01
  2.000E-02  1.925E-01  1.017E+05  2.301E-10  6.500E-02  7.459E-01  7.459E-01
  2.000E-02  1.988E-01  1.017E+05  1.826E-10  6.500E-02  7.459E-01  7.459E-01
  2.000E-02  2.052E-01  1.017E+05  1.314E-10  6.500E-02  7.459E-01  7.459E-01
  2.000E-02  2.115E-01  1.017E+05  8.794E-11  6.500E-02  7.459E-01  7.459E-01
  2.000E-02  2.178E-01  1.017E+05  4.059E-11  6.500E-02  7.459E-01  7.459E-01
  2.000E-02  2.241E-01  1.017E+05 -1.855E-12  6.500E-02  7.459E-01  7.459E-01
  2.000E-02  2.304E-01  1.016E+05 -4.849E-11  6.500E-02  7.459E-01  7.459E-01
  2.000E-02  2.367E-01  1.016E+05 -7.414E-11  6.501E-02  7.460E-01  7.460E-01
  2.000E-02  2.430E-01  1.016E+05 -5.689E-11  6.500E-02  7.460E-01  7.460E-01
  2.000E-02  2.493E-01  1.016E+05 -1.453E-11  6.500E-02  7.460E-01  7.460E-01
  2.000E-02  2.557E-01  1.016E+05  4.539E-11  6.500E-02  7.460E-01  7.460E-01
  2.000E-02  2.620E-01  1.016E+05  8.384E-11  6.500E-02  7.461E-01  7.461E-01
  2.000E-02  2.683E-01  1.016E+05  8.307E-11  6.500E-02  7.461E-01  7.461E-01
  2.000E-02  2.746E-01  1.016E+05  4.967E-11  6.500E-02  7.462E-01  7.462E-01
  2.000E-02  2.809E-01  1.016E+05  1.255E-11  6.500E-02  7.463E-01  7.463E-01
  2.000E-02  2.872E-01  1.016E+05 -2.182E-11  6.500E-02  7.464E-01  7.464E-01
  2.000E-02  2.935E-01  1.016E+05 -4.884E-11  6.501E-02  7.466E-01  7.466E-01
  2.000E-02  2.998E-01  1.016E+05 -5.377E-11  6.500E-02  7.468E-01  7.468E-01
  2.000E-02  3.062E-01  1.016E+05 -4.740E-11  6.500E-02  7.470E-01  7.470E-01
  2.000E-02  3.125E-01  1.015E+05 -2.772E-11  6.500E-02  7.474E-01  7.474E-01
  2.000E-02  3.188E-01  1.015E+05 -1.443E-12  6.500E-02  7.478E-01  7.478E-01
  2.000E-02  3.251E-01  1.015E+05  2.630E-11  6.500E-02  7.484E-01  7.484E-01
  2.000E-02  3.314E-01  1.015E+05  4.377E-11  6.500E-02  7.491E-01  7.491E-01
  2.000E-02  3.377E-01  1.015E+05  4.874E-11  6.500E-02  7.500E-01  7.499E-01
  2.000E-02  3.440E-01  1.015E+05  3.249E-11  6.500E-02  7.511E-01  7.510E-01
  2.000E-02  3.503E-01  1.015E+05  1.310E-11  6.500E-02  7.524E-01  7.524E-01
  2.000E-02  3.567E-01  1.015E+05 -1.330E-11  6.500E-02  7.541E-01  7.541E-01
  2.000E-02  3.630E-01  1.015E+05 -3.630E-11  6.501E-02  7.562E-01  7.561E-01
  2.000E-02  3.693E-01  1.015E+05 -3.622E-11  6.500E-02  7.587E-01  7.586E-01
  2.000E-02  3.756E-01  1.015E+05 -2.546E-11  6.500E-02  7.617E-01  7.616E-01
  2.000E-02  3.819E-01  1.015E+05 -1.256E-11  6.500E-02  7.654E-01  7.652E-01
  2.000E-02  3.882E-01  1.015E+05 -9.763E-12  6.500E-02  7.698E-01  7.696E-01
  2.000E-02  3.945E-01  1.015E+05 -5.454E-12  6.500E-02  7.750E-01  7.747E-01
  2.000E-02  4.008E-01  1.014E+05  1.036E-11  6.500E-02  7.811E-01  7.809E-01
  2.000E-02  4.072E-01  1.014E+05  3.948E-11  6.500E-02  7.884E-01  7.880E-01
  2.000E-02  4.135E-01  1.014E+05  5.337E-11  6.500E-02  7.968E-01  7.964E-01
  2.000E-02  4.198E-01  1.014E+05  4.497E-11  6.500E-02  8.066E-01  8.062E-01
  2.000E-02  4.261E-01  1.014E+05 -5.131E-13  6.500E-02  8.180E-01  8.174E-01
  2.000E-02  4.324E-01  1.014E+05 -4.722E-11  6.501E-02  8.310E-01  8.304E-01
  2.000E-02  4.387E-01  1.014E+05 -6.474E-11  6.500E-02  8.458E-01  8.451E-01
  2.000E-02  4.450E-01  1.014E+05 -4.827E-11  6.500E-02  8.626E-01  8.619E-01
  2.000E-02  4.513E-01  1.014E+05  8.754E-12  6.500E-02  8.816E-01  8.807E-01
  2.000E-02  4.577E-01  1.014E+05  5.523E-11  6.500E-02  9.029E-01  9.019E-01
  2.000E-02  4.640E-01  1.014E+05  6.640E-11  6.500E-02  9.265E-01  9.254E-01
  2.000E-02  4.703E-01  1.014E+05  3.538E-11  6.500E-02  9.526E-01  9.514E-01
  2.000E-02  4.766E-01  1.014E+05 -1.516E-11  6.500E-02  9.810E-01  9.797E-01
  2.000E-02  4.829E-01  1.014E+05 -6.622E-11  6.500E-02  1.012E+00  1.010E+00
  2.000E-02  4.892E-01  1.013E+05 -9.106E-11  6.500E-02  1.043E+00  1.042E+00
  2.000E-02  4.955E-01  1.013E+05 -9.504E-11  6.500E-02  1.073E+00  1.072E+00
  2.000E-02  5.018E-01  1.013E+05 -9.707E-11  6.500E-02  1.096E+00  1.095E+00
  2.000E-02  5.050E-01  1.013E+05 -9.707E-11  6.500E-02  1.096E+00  1.095E+00
  2.800E-02  0.000E+00  1.019E+05  4.110E-07  6.500E-02  7.445E-01  7.444E-01
  2.800E-02  3.156E-03  1.019E+05  4.110E-07  6.498E-02  7.445E-01  7.444E-01
  2.800E-02  9.469E-03  1.019E+05  3.558E-07  6.500E-02  7.445E-01  7.444E-01
  2.800E-02  1.578E-02  1.019E+05  3.477E-07  6.500E-02  7.445E-01  7.444E-01
  2.800E-02  2.209E-02  1.019E+05  3.357E-07  6.500E-02  7.445E-01  7.444E-01
  2.800E-02  2.841E-02  1.019E+05  9.433E-07  6.501E-02  7.445E-01  7.444E-01
  2.800E-02  3.472E-02  1.019E+05  9.450E-07  6.500E-02  7.445E-01  7.444E-01
  2.800E-02  4.103E-02  1.019E+05  8.753E-07  6.500E-02  7.445E-01  7.444E-01
  2.800E-02  4.734E-02  1.019E+05  1.945E-07  6.500E-02  7.445E-01  7.444E-01
  2.800E-02  5.366E-02  1.019E+05  1.262E-07  6.500E-02  7.445E-01  7.444E-01
  2.800E-02  5.997E-02  1.018E+05  5.407E-08  6.500E-02  7.445E-01  7.444E-01
  2.800E-02  6.628E-02  1.018E+05  3.244E-08  6.500E-02  7.445E-01  7.444E-01
  2.800E-02  7.259E-02  1.018E+05  2.058E-08  6.500E-02  7.445E-01  7.444E-01
  2.800E-02  7.891E-02  1.018E+05  1.461E-08  6.500E-02  7.445E-01  7.444E-01
  2.800E-02  8.522E-02  1.018E+05  1.094E-08  6.500E-02  7.445E-01  7.444E-01
  2.800E-02  9.153E-02  1.018E+05  8.440E-09  6.500E-02  7.445E-01  7.444E-01
  2.800E-02  9.784E-02  1.018E+05  6.555E-09  6.501E-02  7.445E-01  7.444E-01
  2.800E-02  1.042E-01  1.018E+05  5.136E-09  6.500E-02  7.445E-01  7.444E-01
  2.800E-02  1.105E-01  1.018E+05  4.069E-09  6.500E-02  7.445E-01  7.444E-01
  2.800E-02  1.168E-01  1.018E+05  3.219E-09  6.500E-02  7.445E-01  7.444E-01
  2.800E-02  1.231E-01  1.018E+05  2.551E-09  6.500E-02  7.445E-01  7.444E-01
  2.800E-02  1.294E-01  1.018E+05  1.977E-09  6.500E-02  7.445E-01  7.444E-01
  2.800E-02  1.357E-01  1.018E+05  1.515E-09  6.500E-02  7.445E-01  7.444E-01
  2.800E-02  1.420E-01  1.017E+05  1.207E-09  6.500E-02  7.445E-01  7.444E-01
  2.800E-02  1.483E-01  1.017E+05  9.402E-10  6.500E-02  7.445E-01  7.444E-01
  2.800E-02  1.547E-01  1.017E+05  7.253E-10  6.500E-02  7.445E-01  7.444E-01
  2.800E-02  1.610E-01  1.017E+05  5.555E-10  6.500E-02  7.445E-01  7.444E-01
  2.800E-02  1.673E-01  1.017E+05  4.427E-10  6.501E-02  7.445E-01  7.445E-01
  2.800E-02  1.736E-01  1.017E+05  3.788E-10  6.500E-02  7.445E-01  7.445E-01
  2.800E-02  1.799E-01  1.017E+05  3.360E-10  6.500E-02  7.445E-01  7.445E-01
  2.800E-02  1.862E-01  1.017E+05  2.960E-10  6.500E-02  7.445E-01  7.445E-01
  2.800E-02  1.925E-01  1.017E+05  2.361E-10  6.500E-02  7.445E-01  7.445E-01
  2.800E-02  1.988E-01  1.017E+05  1.729E-10  6.500E-02  7.445E-01  7.445E-01
  2.800E-02  2.052E-01  1.017E+05  1.115E-10  6.500E-02  7.445E-01  7.445E-01
  2.800E-02  2.115E-01  1.017E+05  6.818E-11  6.500E-02  7.445E-01  7.445E-01
  2.800E-02  2.178E-01  1.017E+05  3.354E-11  6.500E-02  7.445E-01  7.445E-01
  2.800E-02  2.241E-01  1.017E+05  1.670E-11  6.500E-02  7.445E-01  7.445E-01
  2.800E-02  2.304E-01  1.016E+05 -2.771E-13  6.500E-02  7.445E-01  7.445E-01
  2.800E-02  2.367E-01  1.016E+05 -5.001E-12  6.501E-02  7.445E-01  7.445E-01
  2.800E-02  2.430E-01  1.016E+05  7.615E-12  6.500E-02  7.445E-01  7.445E-01
  2.800E-02  2.493E-01  1.016E+05  2.434E-11  6.500E-02  7.445E-01  7.445E-01
  2.800E-02  2.557E-01  1.016E+05  4.137E-11  6.500E-02  7.446E-01  7.446E-01
  2.800E-02  2.620E-01  1.016E+05  3.844E-11  6.500E-02  7.446E-01  7.446E-01
  2.800E-02  2.683E-01  1.016E+05  2.295E-11  6.500E-02  7.446E-01  7.446E-01
  2.800E-02  2.746E-01  1.016E+05  9.795E-14  6.500E-02  7.447E-01  7.447E-01
  2.800E-02  2.809E-01  1.016E+05 -8.098E-12  6.500E-02  7.448E-01  7.448E-01
  2.800E-02  2.872E-01  1.016E+05 -1.428E-11  6.500E-02  7.449E-01  7.449E-01
  2.800E-02  2.935E-01  1.016E+05 -1.925E-11  6.501E-02  7.451E-01  7.451E-01
  2.800E-02  2.998E-01  1.016E+05 -1.792E-11  6.500E-02  7.453E-01  7.453E-01
  2.800E-02  3.062E-01  1.016E+05 -1.548E-11  6.500E-02  7.456E-01  7.456E-01
  2.800E-02  3.125E-01  1.015E+05 -5.760E-12  6.500E-02  7.459E-01  7.459E-01
  2.800E-02  3.188E-01  1.015E+05  3.135E-12  6.500E-02  7.464E-01  7.463E-01
  2.800E-02  3.251E-01  1.015E+05  1.467E-11  6.500E-02  7.469E-01  7.469E-01
  2.800E-02  3.314E-01  1.015E+05  1.327E-11  6.500E-02  7.476E-01  7.476E-01
  2.800E-02  3.377E-01  1.015E+05  6.614E-12  6.500E-02  7.485E-01  7.485E-01