VARIABLES="XP","YP","P","U","V","TS","TF"
ZONE T="Zone 001"I=    82 J=    22 F=POINT
  0.000E+00  0.000E+00  1.019E+05  0.000E+00  0.000E+00  7.733E-01  7.733E-01
  0.000E+00  3.156E-03  1.019E+05  0.000E+00  0.000E+00  7.733E-01  7.733E-01
  0.000E+00  9.469E-03  1.019E+05  0.000E+00  0.000E+00  7.733E-01  7.733E-01
  0.000E+00  1.578E-02  1.019E+05  0.000E+00  0.000E+00  7.733E-01  7.733E-01
  0.000E+00  2.209E-02  1.019E+05  0.000E+00  0.000E+00  7.733E-01  7.733E-01
  0.000E+00  2.841E-02  1.019E+05  0.000E+00  0.000E+00  7.733E-01  7.733E-01
  0.000E+00  3.472E-02  1.019E+05  0.000E+00  0.000E+00  7.733E-01  7.733E-01
  0.000E+00  4.103E-02  1.019E+05  0.000E+00  0.000E+00  7.733E-01  7.733E-01
  0.000E+00  4.734E-02  1.019E+05  0.000E+00  0.000E+00  7.733E-01  7.733E-01
  0.000E+00  5.366E-02  1.019E+05  0.000E+00  0.000E+00  7.734E-01  7.734E-01
  0.000E+00  5.997E-02  1.018E+05  0.000E+00  0.000E+00  7.734E-01  7.734E-01
  0.000E+00  6.628E-02  1.018E+05  0.000E+00  0.000E+00  7.735E-01  7.734E-01
  0.000E+00  7.259E-02  1.018E+05  0.000E+00  0.000E+00  7.735E-01  7.735E-01
  0.000E+00  7.891E-02  1.018E+05  0.000E+00  0.000E+00  7.737E-01  7.737E-01
  0.000E+00  8.522E-02  1.018E+05  0.000E+00  0.000E+00  7.739E-01  7.739E-01
  0.000E+00  9.153E-02  1.018E+05  0.000E+00  0.000E+00  7.743E-01  7.743E-01
  0.000E+00  9.784E-02  1.018E+05  0.000E+00  0.000E+00  7.749E-01  7.748E-01
  0.000E+00  1.042E-01  1.018E+05  0.000E+00  0.000E+00  7.757E-01  7.757E-01
  0.000E+00  1.105E-01  1.018E+05  0.000E+00  0.000E+00  7.770E-01  7.769E-01
  0.000E+00  1.168E-01  1.018E+05  0.000E+00  0.000E+00  7.789E-01  7.788E-01
  0.000E+00  1.231E-01  1.018E+05  0.000E+00  0.000E+00  7.816E-01  7.814E-01
  0.000E+00  1.294E-01  1.018E+05  0.000E+00  0.000E+00  7.854E-01  7.852E-01
  0.000E+00  1.357E-01  1.018E+05  0.000E+00  0.000E+00  7.908E-01  7.905E-01
  0.000E+00  1.420E-01  1.017E+05  0.000E+00  0.000E+00  7.981E-01  7.978E-01
  0.000E+00  1.483E-01  1.017E+05  0.000E+00  0.000E+00  8.081E-01  8.077E-01
  0.000E+00  1.547E-01  1.017E+05  0.000E+00  0.000E+00  8.215E-01  8.209E-01
  0.000E+00  1.610E-01  1.017E+05  0.000E+00  0.000E+00  8.390E-01  8.382E-01
  0.000E+00  1.673E-01  1.017E+05  0.000E+00  0.000E+00  8.617E-01  8.607E-01
  0.000E+00  1.736E-01  1.017E+05  0.000E+00  0.000E+00  8.905E-01  8.892E-01
  0.000E+00  1.799E-01  1.017E+05  0.000E+00  0.000E+00  9.267E-01  9.250E-01
  0.000E+00  1.862E-01  1.017E+05  0.000E+00  0.000E+00  9.711E-01  9.691E-01
  0.000E+00  1.925E-01  1.017E+05  0.000E+00  0.000E+00  1.025E+00  1.023E+00
  0.000E+00  1.988E-01  1.017E+05  0.000E+00  0.000E+00  1.089E+00  1.086E+00
  0.000E+00  2.052E-01  1.017E+05  0.000E+00  0.000E+00  1.165E+00  1.161E+00
  0.000E+00  2.115E-01  1.017E+05  0.000E+00  0.000E+00  1.251E+00  1.247E+00
  0.000E+00  2.178E-01  1.017E+05  0.000E+00  0.000E+00  1.350E+00  1.345E+00
  0.000E+00  2.241E-01  1.017E+05  0.000E+00  0.000E+00  1.459E+00  1.454E+00
  0.000E+00  2.304E-01  1.016E+05  0.000E+00  0.000E+00  1.579E+00  1.574E+00
  0.000E+00  2.367E-01  1.016E+05  0.000E+00  0.000E+00  1.708E+00  1.702E+00
  0.000E+00  2.430E-01  1.016E+05  0.000E+00  0.000E+00  1.845E+00  1.838E+00
  0.000E+00  2.493E-01  1.016E+05  0.000E+00  0.000E+00  1.985E+00  1.979E+00
  0.000E+00  2.557E-01  1.016E+05  0.000E+00  0.000E+00  2.128E+00  2.122E+00
  0.000E+00  2.620E-01  1.016E+05  0.000E+00  0.000E+00  2.270E+00  2.263E+00
  0.000E+00  2.683E-01  1.016E+05  0.000E+00  0.000E+00  2.407E+00  2.400E+00
  0.000E+00  2.746E-01  1.016E+05  0.000E+00  0.000E+00  2.535E+00  2.529E+00
  0.000E+00  2.809E-01  1.016E+05  0.000E+00  0.000E+00  2.652E+00  2.647E+00
  0.000E+00  2.872E-01  1.016E+05  0.000E+00  0.000E+00  2.755E+00  2.750E+00
  0.000E+00  2.935E-01  1.016E+05  0.000E+00  0.000E+00  2.840E+00  2.835E+00
  0.000E+00  2.998E-01  1.016E+05  0.000E+00  0.000E+00  2.904E+00  2.901E+00
  0.000E+00  3.062E-01  1.016E+05  0.000E+00  0.000E+00  2.947E+00  2.945E+00
  0.000E+00  3.125E-01  1.015E+05  0.000E+00  0.000E+00  2.967E+00  2.966E+00
  0.000E+00  3.188E-01  1.015E+05  0.000E+00  0.000E+00  2.964E+00  2.964E+00
  0.000E+00  3.251E-01  1.015E+05  0.000E+00  0.000E+00  2.937E+00  2.938E+00
  0.000E+00  3.314E-01  1.015E+05  0.000E+00  0.000E+00  2.888E+00  2.890E+00
  0.000E+00  3.377E-01  1.015E+05  0.000E+00  0.000E+00  2.819E+00  2.822E+00
  0.000E+00  3.440E-01  1.015E+05  0.000E+00  0.000E+00  2.730E+00  2.734E+00
  0.000E+00  3.503E-01  1.015E+05  0.000E+00  0.000E+00  2.625E+00  2.630E+00
  0.000E+00  3.567E-01  1.015E+05  0.000E+00  0.000E+00  2.507E+00  2.512E+00
  0.000E+00  3.630E-01  1.015E+05  0.000E+00  0.000E+00  2.378E+00  2.384E+00
  0.000E+00  3.693E-01  1.015E+05  0.000E+00  0.000E+00  2.240E+00  2.247E+00
  0.000E+00  3.756E-01  1.015E+05  0.000E+00  0.000E+00  2.098E+00  2.105E+00
  0.000E+00  3.819E-01  1.015E+05  0.000E+00  0.000E+00  1.954E+00  1.960E+00
  0.000E+00  3.882E-01  1.015E+05  0.000E+00  0.000E+00  1.809E+00  1.816E+00
  0.000E+00  3.945E-01  1.015E+05  0.000E+00  0.000E+00  1.667E+00  1.674E+00
  0.000E+00  4.008E-01  1.014E+05  0.000E+00  0.000E+00  1.529E+00  1.536E+00
  0.000E+00  4.072E-01  1.014E+05  0.000E+00  0.000E+00  1.397E+00  1.404E+00
  0.000E+00  4.135E-01  1.014E+05  0.000E+00  0.000E+00  1.273E+00  1.278E+00
  0.000E+00  4.198E-01  1.014E+05  0.000E+00  0.000E+00  1.156E+00  1.161E+00
  0.000E+00  4.261E-01  1.014E+05  0.000E+00  0.000E+00  1.048E+00  1.053E+00
  0.000E+00  4.324E-01  1.014E+05  0.000E+00  0.000E+00  9.483E-01  9.530E-01
  0.000E+00  4.387E-01  1.014E+05  0.000E+00  0.000E+00  8.580E-01  8.622E-01
  0.000E+00  4.450E-01  1.014E+05  0.000E+00  0.000E+00  7.764E-01  7.802E-01
  0.000E+00  4.513E-01  1.014E+05  0.000E+00  0.000E+00  7.032E-01  7.067E-01
  0.000E+00  4.577E-01  1.014E+05  0.000E+00  0.000E+00  6.381E-01  6.412E-01
  0.000E+00  4.640E-01  1.014E+05  0.000E+00  0.000E+00  5.805E-01  5.833E-01
  0.000E+00  4.703E-01  1.014E+05  0.000E+00  0.000E+00  5.298E-01  5.322E-01
  0.000E+00  4.766E-01  1.014E+05  0.000E+00  0.000E+00  4.854E-01  4.875E-01
  0.000E+00  4.829E-01  1.014E+05  0.000E+00  0.000E+00  4.468E-01  4.486E-01
  0.000E+00  4.892E-01  1.013E+05  0.000E+00  0.000E+00  4.137E-01  4.153E-01
  0.000E+00  4.955E-01  1.013E+05  0.000E+00  0.000E+00  3.867E-01  3.880E-01
  0.000E+00  5.018E-01  1.013E+05  0.000E+00  0.000E+00  3.684E-01  3.693E-01
  0.000E+00  5.050E-01  1.013E+05  0.000E+00  0.000E+00  3.684E-01  3.693E-01
  4.000E-03  0.000E+00  1.019E+05  8.159E-07  6.500E-02  7.733E-01  7.733E-01
  4.000E-03  3.156E-03  1.019E+05  8.159E-07  6.498E-02  7.733E-01  7.733E-01
  4.000E-03  9.469E-03  1.019E+05  3.451E-07  6.499E-02  7.733E-01  7.733E-01
  4.000E-03  1.578E-02  1.019E+05  2.431E-07  6.500E-02  7.733E-01  7.733E-01
  4.000E-03  2.209E-02  1.019E+05  2.385E-07  6.499E-02  7.733E-01  7.733E-01
  4.000E-03  2.841E-02  1.019E+05  7.592E-07  6.499E-02  7.733E-01  7.733E-01
  4.000E-03  3.472E-02  1.019E+05  1.433E-06  6.500E-02  7.733E-01  7.733E-01
  4.000E-03  4.103E-02  1.019E+05  7.270E-07  6.500E-02  7.733E-01  7.733E-01
  4.000E-03  4.734E-02  1.019E+05  1.560E-07  6.500E-02  7.733E-01  7.733E-01
  4.000E-03  5.366E-02  1.019E+05  7.211E-08  6.499E-02  7.734E-01  7.734E-01
  4.000E-03  5.997E-02  1.018E+05  1.917E-08  6.499E-02  7.734E-01  7.734E-01
  4.000E-03  6.628E-02  1.018E+05  6.982E-09  6.499E-02  7.735E-01  7.734E-01
  4.000E-03  7.259E-02  1.018E+05  2.514E-09  6.499E-02  7.735E-01  7.735E-01
  4.000E-03  7.891E-02  1.018E+05  1.418E-09  6.499E-02  7.737E-01  7.737E-01
  4.000E-03  8.522E-02  1.018E+05  1.084E-09  6.499E-02  7.739E-01  7.739E-01
  4.000E-03  9.153E-02  1.018E+05  9.356E-10  6.500E-02  7.743E-01  7.743E-01
  4.000E-03  9.784E-02  1.018E+05  8.275E-10  6.500E-02  7.749E-01  7.748E-01
  4.000E-03  1.042E-01  1.018E+05  7.198E-10  6.500E-02  7.757E-01  7.757E-01
  4.000E-03  1.105E-01  1.018E+05  5.952E-10  6.499E-02  7.770E-01  7.769E-01
  4.000E-03  1.168E-01  1.018E+05  4.932E-10  6.499E-02  7.789E-01  7.788E-01
  4.000E-03  1.231E-01  1.018E+05  3.826E-10  6.499E-02  7.816E-01  7.814E-01
  4.000E-03  1.294E-01  1.018E+05  3.215E-10  6.499E-02  7.854E-01  7.852E-01
  4.000E-03  1.357E-01  1.018E+05  3.237E-10  6.499E-02  7.908E-01  7.905E-01
  4.000E-03  1.420E-01  1.017E+05  2.783E-10  6.499E-02  7.981E-01  7.978E-01
  4.000E-03  1.483E-01  1.017E+05  2.050E-10  6.499E-02  8.081E-01  8.077E-01
  4.000E-03  1.547E-01  1.017E+05  1.548E-10  6.499E-02  8.215E-01  8.209E-01
  4.000E-03  1.610E-01  1.017E+05  1.205E-10  6.500E-02  8.390E-01  8.382E-01
  4.000E-03  1.673E-01  1.017E+05  7.152E-11  6.500E-02  8.617E-01  8.607E-01
  4.000E-03  1.736E-01  1.017E+05  2.538E-11  6.500E-02  8.905E-01  8.892E-01
  4.000E-03  1.799E-01  1.017E+05 -9.701E-12  6.499E-02  9.267E-01  9.250E-01
  4.000E-03  1.862E-01  1.017E+05  1.625E-11  6.499E-02  9.711E-01  9.691E-01
  4.000E-03  1.925E-01  1.017E+05  5.058E-11  6.499E-02  1.025E+00  1.023E+00
  4.000E-03  1.988E-01  1.017E+05  3.436E-11  6.499E-02  1.089E+00  1.086E+00
  4.000E-03  2.052E-01  1.017E+05  3.383E-11  6.499E-02  1.165E+00  1.161E+00
  4.000E-03  2.115E-01  1.017E+05  2.676E-11  6.499E-02  1.251E+00  1.247E+00
  4.000E-03  2.178E-01  1.017E+05  1.810E-11  6.499E-02  1.350E+00  1.345E+00
  4.000E-03  2.241E-01  1.017E+05  9.251E-12  6.499E-02  1.459E+00  1.454E+00
  4.000E-03  2.304E-01  1.016E+05 -1.216E-11  6.500E-02  1.579E+00  1.574E+00
  4.000E-03  2.367E-01  1.016E+05 -2.522E-11  6.500E-02  1.708E+00  1.702E+00
  4.000E-03  2.430E-01  1.016E+05  7.529E-12  6.500E-02  1.845E+00  1.838E+00
  4.000E-03  2.493E-01  1.016E+05 -8.228E-12  6.499E-02  1.985E+00  1.979E+00
  4.000E-03  2.557E-01  1.016E+05 -5.123E-12  6.499E-02  2.128E+00  2.122E+00
  4.000E-03  2.620E-01  1.016E+05  2.171E-11  6.499E-02  2.270E+00  2.263E+00
  4.000E-03  2.683E-01  1.016E+05  5.741E-12  6.499E-02  2.407E+00  2.400E+00
  4.000E-03  2.746E-01  1.016E+05  1.480E-11  6.499E-02  2.535E+00  2.529E+00
  4.000E-03  2.809E-01  1.016E+05  2.285E-11  6.499E-02  2.652E+00  2.647E+00
  4.000E-03  2.872E-01  1.016E+05  2.283E-11  6.500E-02  2.755E+00  2.750E+00
  4.000E-03  2.935E-01  1.016E+05 -2.886E-11  6.500E-02  2.840E+00  2.835E+00
  4.000E-03  2.998E-01  1.016E+05 -3.059E-11  6.500E-02  2.904E+00  2.901E+00
  4.000E-03  3.062E-01  1.016E+05 -1.728E-11  6.499E-02  2.947E+00  2.945E+00
  4.000E-03  3.125E-01  1.015E+05  2.731E-12  6.499E-02  2.967E+00  2.966E+00
  4.000E-03  3.188E-01  1.015E+05  3.511E-11  6.499E-02  2.964E+00  2.964E+00
  4.000E-03  3.251E-01  1.015E+05  8.758E-12  6.499E-02  2.937E+00  2.938E+00
  4.000E-03  3.314E-01  1.015E+05  3.255E-12  6.499E-02  2.888E+00  2.890E+00
  4.000E-03  3.377E-01  1.015E+05 -1.179E-13  6.499E-02  2.819E+00  2.822E+00
  4.000E-03  3.440E-01  1.015E+05  3.394E-12  6.499E-02  2.730E+00  2.734E+00
  4.000E-03  3.503E-01  1.015E+05  9.788E-12  6.499E-02  2.625E+00  2.630E+00
  4.000E-03  3.567E-01  1.015E+05  1.507E-11  6.500E-02  2.507E+00  2.512E+00
  4.000E-03  3.630E-01  1.015E+05 -2.685E-11  6.500E-02  2.378E+00  2.384E+00
  4.000E-03  3.693E-01  1.015E+05 -2.862E-11  6.500E-02  2.240E+00  2.247E+00
  4.000E-03  3.756E-01  1.015E+05 -2.163E-11  6.499E-02  2.098E+00  2.105E+00
  4.000E-03  3.819E-01  1.015E+05 -2.494E-12  6.499E-02  1.954E+00  1.960E+00
  4.000E-03  3.882E-01  1.015E+05  3.383E-11  6.499E-02  1.809E+00  1.816E+00
  4.000E-03  3.945E-01  1.015E+05  1.385E-11  6.499E-02  1.667E+00  1.674E+00
  4.000E-03  4.008E-01  1.014E+05  8.401E-12  6.499E-02  1.529E+00  1.536E+00
  4.000E-03  4.072E-01  1.014E+05 -2.870E-12  6.499E-02  1.397E+00  1.404E+00
  4.000E-03  4.135E-01  1.014E+05 -9.623E-12  6.499E-02  1.273E+00  1.278E+00
  4.000E-03  4.198E-01  1.014E+05 -8.030E-12  6.499E-02  1.156E+00  1.161E+00
  4.000E-03  4.261E-01  1.014E+05 -1.504E-11  6.500E-02  1.048E+00  1.053E+00
  4.000E-03  4.324E-01  1.014E+05  1.212E-12  6.500E-02  9.483E-01  9.530E-01
  4.000E-03  4.387E-01  1.014E+05  1.399E-11  6.500E-02  8.580E-01  8.622E-01
  4.000E-03  4.450E-01  1.014E+05 -2.756E-11  6.499E-02  7.764E-01  7.802E-01
  4.000E-03  4.513E-01  1.014E+05 -9.259E-12  6.499E-02  7.032E-01  7.067E-01
  4.000E-03  4.577E-01  1.014E+05  1.583E-11  6.499E-02  6.381E-01  6.412E-01
  4.000E-03  4.640E-01  1.014E+05 -2.461E-12  6.499E-02  5.805E-01  5.833E-01
  4.000E-03  4.703E-01  1.014E+05  6.348E-12  6.499E-02  5.298E-01  5.322E-01
  4.000E-03  4.766E-01  1.014E+05  1.102E-11  6.499E-02  4.854E-01  4.875E-01
  4.000E-03  4.829E-01  1.014E+05  8.636E-12  6.499E-02  4.468E-01  4.486E-01
  4.000E-03  4.892E-01  1.013E+05 -9.999E-12  6.499E-02  4.137E-01  4.153E-01
  4.000E-03  4.955E-01  1.013E+05 -4.068E-11  6.499E-02  3.867E-01  3.880E-01
  4.000E-03  5.018E-01  1.013E+05 -5.684E-11  6.500E-02  3.684E-01  3.693E-01
  4.000E-03  5.050E-01  1.013E+05 -5.684E-11  6.500E-02  3.684E-01  3.693E-01
  1.200E-02  0.000E+00  1.019E+05  1.109E-06  6.500E-02  7.726E-01  7.726E-01
  1.200E-02  3.156E-03  1.019E+05  1.109E-06  6.498E-02  7.726E-01  7.726E-01
  1.200E-02  9.469E-03  1.019E+05  4.972E-07  6.500E-02  7.726E-01  7.726E-01
  1.200E-02  1.578E-02  1.019E+05  2.964E-07  6.500E-02  7.726E-01  7.726E-01
  1.200E-02  2.209E-02  1.019E+05 -4.992E-07  6.500E-02  7.726E-01  7.726E-01
  1.200E-02  2.841E-02  1.019E+05  2.598E-06  6.500E-02  7.726E-01  7.726E-01
  1.200E-02  3.472E-02  1.019E+05  8.146E-06  6.500E-02  7.726E-01  7.726E-01
  1.200E-02  4.103E-02  1.019E+05  2.552E-06  6.501E-02  7.726E-01  7.726E-01
  1.200E-02  4.734E-02  1.019E+05 -6.636E-07  6.500E-02  7.726E-01  7.726E-01
  1.200E-02  5.366E-02  1.019E+05 -2.332E-08  6.500E-02  7.726E-01  7.726E-01
  1.200E-02  5.997E-02  1.018E+05 -4.739E-08  6.500E-02  7.726E-01  7.726E-01
  1.200E-02  6.628E-02  1.018E+05 -1.261E-08  6.500E-02  7.727E-01  7.727E-01
  1.200E-02  7.259E-02  1.018E+05 -4.136E-09  6.500E-02  7.728E-01  7.728E-01
  1.200E-02  7.891E-02  1.018E+05  4.655E-10  6.500E-02  7.729E-01  7.729E-01
  1.200E-02  8.522E-02  1.018E+05  2.095E-09  6.500E-02  7.732E-01  7.732E-01
  1.200E-02  9.153E-02  1.018E+05  2.520E-09  6.500E-02  7.735E-01  7.735E-01
  1.200E-02  9.784E-02  1.018E+05  2.444E-09  6.501E-02  7.741E-01  7.741E-01
  1.200E-02  1.042E-01  1.018E+05  2.203E-09  6.500E-02  7.750E-01  7.749E-01
  1.200E-02  1.105E-01  1.018E+05  1.893E-09  6.500E-02  7.762E-01  7.762E-01
  1.200E-02  1.168E-01  1.018E+05  1.607E-09  6.500E-02  7.781E-01  7.780E-01
  1.200E-02  1.231E-01  1.018E+05  1.321E-09  6.500E-02  7.808E-01  7.807E-01
  1.200E-02  1.294E-01  1.018E+05  1.112E-09  6.500E-02  7.846E-01  7.844E-01
  1.200E-02  1.357E-01  1.018E+05  9.061E-10  6.500E-02  7.900E-01  7.897E-01
  1.200E-02  1.420E-01  1.017E+05  6.528E-10  6.500E-02  7.974E-01  7.970E-01
  1.200E-02  1.483E-01  1.017E+05  4.391E-10  6.500E-02  8.074E-01  8.069E-01
  1.200E-02  1.547E-01  1.017E+05  2.861E-10  6.500E-02  8.207E-01  8.201E-01
  1.200E-02  1.610E-01  1.017E+05  1.966E-10  6.500E-02  8.383E-01  8.374E-01
  1.200E-02  1.673E-01  1.017E+05  1.293E-10  6.501E-02  8.609E-01  8.599E-01
  1.200E-02  1.736E-01  1.017E+05  9.983E-11  6.500E-02  8.898E-01  8.884E-01
  1.200E-02  1.799E-01  1.017E+05  1.055E-10  6.500E-02  9.259E-01  9.242E-01
  1.200E-02  1.862E-01  1.017E+05  1.716E-10  6.500E-02  9.703E-01  9.683E-01
  1.200E-02  1.925E-01  1.017E+05  2.046E-10  6.500E-02  1.024E+00  1.022E+00
  1.200E-02  1.988E-01  1.017E+05  1.546E-10  6.500E-02  1.088E+00  1.085E+00
  1.200E-02  2.052E-01  1.017E+05  1.071E-10  6.500E-02  1.164E+00  1.160E+00
  1.200E-02  2.115E-01  1.017E+05  6.916E-11  6.500E-02  1.251E+00  1.247E+00
  1.200E-02  2.178E-01  1.017E+05  3.930E-11  6.500E-02  1.349E+00  1.344E+00
  1.200E-02  2.241E-01  1.017E+05  1.337E-11  6.500E-02  1.459E+00  1.454E+00
  1.200E-02  2.304E-01  1.016E+05 -4.173E-11  6.500E-02  1.579E+00  1.573E+00
  1.200E-02  2.367E-01  1.016E+05 -9.518E-11  6.501E-02  1.708E+00  1.702E+00
  1.200E-02  2.430E-01  1.016E+05 -7.763E-11  6.500E-02  1.844E+00  1.837E+00
  1.200E-02  2.493E-01  1.016E+05 -6.975E-11  6.500E-02  1.985E+00  1.978E+00
  1.200E-02  2.557E-01  1.016E+05 -4.390E-12  6.500E-02  2.128E+00  2.121E+00
  1.200E-02  2.620E-01  1.016E+05  8.166E-11  6.500E-02  2.269E+00  2.262E+00
  1.200E-02  2.683E-01  1.016E+05  9.496E-11  6.500E-02  2.406E+00  2.400E+00
  1.200E-02  2.746E-01  1.016E+05  8.741E-11  6.500E-02  2.535E+00  2.529E+00
  1.200E-02  2.809E-01  1.016E+05  5.626E-11  6.500E-02  2.652E+00  2.646E+00
  1.200E-02  2.872E-01  1.016E+05  1.424E-11  6.500E-02  2.754E+00  2.749E+00
  1.200E-02  2.935E-01  1.016E+05 -6.778E-11  6.501E-02  2.839E+00  2.835E+00
  1.200E-02  2.998E-01  1.016E+05 -7.357E-11  6.500E-02  2.904E+00  2.901E+00
  1.200E-02  3.062E-01  1.016E+05 -5.481E-11  6.500E-02  2.947E+00  2.945E+00
  1.200E-02  3.125E-01  1.015E+05 -3.017E-11  6.500E-02  2.967E+00  2.966E+00
  1.200E-02  3.188E-01  1.015E+05  9.599E-12  6.500E-02  2.964E+00  2.964E+00
  1.200E-02  3.251E-01  1.015E+05  7.428E-12  6.500E-02  2.937E+00  2.938E+00
  1.200E-02  3.314E-01  1.015E+05  2.719E-11  6.500E-02  2.888E+00  2.890E+00
  1.200E-02  3.377E-01  1.015E+05  4.387E-11  6.500E-02  2.819E+00  2.822E+00
  1.200E-02  3.440E-01  1.015E+05  4.833E-11  6.500E-02  2.730E+00  2.734E+00
  1.200E-02  3.503E-01  1.015E+05  4.426E-11  6.500E-02  2.626E+00  2.631E+00
  1.200E-02  3.567E-01  1.015E+05  2.416E-11  6.500E-02  2.507E+00  2.513E+00
  1.200E-02  3.630E-01  1.015E+05 -4.873E-11  6.501E-02  2.378E+00  2.384E+00
  1.200E-02  3.693E-01  1.015E+05 -6.121E-11  6.500E-02  2.241E+00  2.247E+00
  1.200E-02  3.756E-01  1.015E+05 -4.551E-11  6.500E-02  2.099E+00  2.105E+00
  1.200E-02  3.819E-01  1.015E+05 -1.472E-11  6.500E-02  1.954E+00  1.961E+00
  1.200E-02  3.882E-01  1.015E+05  1.636E-11  6.500E-02  1.810E+00  1.817E+00
  1.200E-02  3.945E-01  1.015E+05 -9.196E-12  6.500E-02  1.668E+00  1.675E+00
  1.200E-02  4.008E-01  1.014E+05 -6.198E-12  6.500E-02  1.530E+00  1.537E+00
  1.200E-02  4.072E-01  1.014E+05  1.814E-11  6.500E-02  1.399E+00  1.405E+00
  1.200E-02  4.135E-01  1.014E+05  4.805E-11  6.500E-02  1.274E+00  1.280E+00
  1.200E-02  4.198E-01  1.014E+05  6.693E-11  6.500E-02  1.157E+00  1.163E+00
  1.200E-02  4.261E-01  1.014E+05  3.012E-11  6.500E-02  1.049E+00  1.054E+00
  1.200E-02  4.324E-01  1.014E+05 -1.457E-11  6.501E-02  9.499E-01  9.546E-01
  1.200E-02  4.387E-01  1.014E+05 -5.529E-11  6.500E-02  8.596E-01  8.639E-01
  1.200E-02  4.450E-01  1.014E+05 -1.082E-10  6.500E-02  7.780E-01  7.819E-01
  1.200E-02  4.513E-01  1.014E+05 -4.313E-11  6.500E-02  7.050E-01  7.085E-01
  1.200E-02  4.577E-01  1.014E+05  3.970E-11  6.500E-02  6.399E-01  6.430E-01
  1.200E-02  4.640E-01  1.014E+05  5.776E-11  6.500E-02  5.824E-01  5.851E-01
  1.200E-02  4.703E-01  1.014E+05  5.536E-11  6.500E-02  5.317E-01  5.341E-01
  1.200E-02  4.766E-01  1.014E+05  1.689E-11  6.500E-02  4.874E-01  4.895E-01
  1.200E-02  4.829E-01  1.014E+05 -3.803E-11  6.500E-02  4.488E-01  4.506E-01
  1.200E-02  4.892E-01  1.013E+05 -8.409E-11  6.500E-02  4.157E-01  4.173E-01
  1.200E-02  4.955E-01  1.013E+05 -1.118E-10  6.500E-02  3.887E-01  3.900E-01
  1.200E-02  5.018E-01  1.013E+05 -1.244E-10  6.500E-02  3.704E-01  3.714E-01
  1.200E-02  5.050E-01  1.013E+05 -1.244E-10  6.500E-02  3.704E-01  3.714E-01
  2.000E-02  0.000E+00  1.019E+05  5.386E-07  6.500E-02  7.710E-01  7.710E-01
  2.000E-02  3.156E-03  1.019E+05  5.386E-07  6.498E-02  7.710E-01  7.710E-01
  2.000E-02  9.469E-03  1.019E+05  3.616E-07  6.500E-02  7.710E-01  7.710E-01
  2.000E-02  1.578E-02  1.019E+05  2.741E-07  6.500E-02  7.710E-01  7.710E-01
  2.000E-02  2.209E-02  1.019E+05 -4.735E-07  6.500E-02  7.710E-01  7.710E-01
  2.000E-02  2.841E-02  1.019E+05  2.660E-06  6.501E-02  7.710E-01  7.710E-01
  2.000E-02  3.472E-02  1.019E+05  8.158E-06  6.500E-02  7.710E-01  7.710E-01
  2.000E-02  4.103E-02  1.019E+05  2.610E-06  6.500E-02  7.710E-01  7.710E-01
  2.000E-02  4.734E-02  1.019E+05 -6.335E-07  6.500E-02  7.711E-01  7.711E-01
  2.000E-02  5.366E-02  1.019E+05 -5.722E-11  6.500E-02  7.711E-01  7.711E-01
  2.000E-02  5.997E-02  1.018E+05 -3.266E-08  6.500E-02  7.711E-01  7.711E-01
  2.000E-02  6.628E-02  1.018E+05 -2.594E-09  6.500E-02  7.712E-01  7.712E-01
  2.000E-02  7.259E-02  1.018E+05  2.691E-09  6.500E-02  7.713E-01  7.713E-01
  2.000E-02  7.891E-02  1.018E+05  5.297E-09  6.500E-02  7.714E-01  7.714E-01
  2.000E-02  8.522E-02  1.018E+05  5.629E-09  6.500E-02  7.716E-01  7.716E-01
  2.000E-02  9.153E-02  1.018E+05  5.199E-09  6.500E-02  7.720E-01  7.720E-01
  2.000E-02  9.784E-02  1.018E+05  4.469E-09  6.501E-02  7.726E-01  7.726E-01
  2.000E-02  1.042E-01  1.018E+05  3.724E-09  6.500E-02  7.734E-01  7.734E-01
  2.000E-02  1.105E-01  1.018E+05  3.096E-09  6.500E-02  7.747E-01  7.746E-01
  2.000E-02  1.168E-01  1.018E+05  2.541E-09  6.500E-02  7.766E-01  7.765E-01
  2.000E-02  1.231E-01  1.018E+05  2.074E-09  6.500E-02  7.793E-01  7.791E-01
  2.000E-02  1.294E-01  1.018E+05  1.645E-09  6.500E-02  7.831E-01  7.829E-01
  2.000E-02  1.357E-01  1.018E+05  1.218E-09  6.500E-02  7.884E-01  7.882E-01
  2.000E-02  1.420E-01  1.017E+05  8.944E-10  6.500E-02  7.958E-01  7.955E-01
  2.000E-02  1.483E-01  1.017E+05  6.498E-10  6.500E-02  8.058E-01  8.054E-01
  2.000E-02  1.547E-01  1.017E+05  4.650E-10  6.500E-02  8.192E-01  8.186E-01
  2.000E-02  1.610E-01  1.017E+05  3.539E-10  6.500E-02  8.367E-01  8.359E-01
  2.000E-02  1.673E-01  1.017E+05  3.033E-10  6.501E-02  8.594E-01  8.583E-01
  2.000E-02  1.736E-01  1.017E+05  2.872E-10  6.500E-02  8.882E-01  8.869E-01
  2.000E-02  1.799E-01  1.017E+05  2.764E-10  6.500E-02  9.243E-01  9.227E-01
  2.000E-02  1.862E-01  1.017E+05  2.646E-10  6.500E-02  9.688E-01  9.667E-01
  2.000E-02  1.925E-01  1.017E+05  2.301E-10  6.500E-02  1.023E+00  1.020E+00
  2.000E-02  1.988E-01  1.017E+05  1.827E-10  6.500E-02  1.087E+00  1.084E+00
  2.000E-02  2.052E-01  1.017E+05  1.316E-10  6.500E-02  1.162E+00  1.159E+00
  2.000E-02  2.115E-01  1.017E+05  8.799E-11  6.500E-02  1.249E+00  1.245E+00
  2.000E-02  2.178E-01  1.017E+05  4.073E-11  6.500E-02  1.347E+00  1.343E+00
  2.000E-02  2.241E-01  1.017E+05 -1.688E-12  6.500E-02  1.457E+00  1.452E+00
  2.000E-02  2.304E-01  1.016E+05 -4.850E-11  6.500E-02  1.577E+00  1.572E+00
  2.000E-02  2.367E-01  1.016E+05 -7.412E-11  6.501E-02  1.706E+00  1.700E+00
  2.000E-02  2.430E-01  1.016E+05 -5.684E-11  6.500E-02  1.842E+00  1.836E+00
  2.000E-02  2.493E-01  1.016E+05 -1.445E-11  6.500E-02  1.983E+00  1.977E+00
  2.000E-02  2.557E-01  1.016E+05  4.551E-11  6.500E-02  2.126E+00  2.119E+00
  2.000E-02  2.620E-01  1.016E+05  8.385E-11  6.500E-02  2.268E+00  2.261E+00
  2.000E-02  2.683E-01  1.016E+05  8.302E-11  6.500E-02  2.405E+00  2.398E+00
  2.000E-02  2.746E-01  1.016E+05  4.963E-11  6.500E-02  2.534E+00  2.528E+00
  2.000E-02  2.809E-01  1.016E+05  1.249E-11  6.500E-02  2.651E+00  2.645E+00
  2.000E-02  2.872E-01  1.016E+05 -2.193E-11  6.500E-02  2.753E+00  2.749E+00
  2.000E-02  2.935E-01  1.016E+05 -4.893E-11  6.501E-02  2.838E+00  2.834E+00
  2.000E-02  2.998E-01  1.016E+05 -5.368E-11  6.500E-02  2.903E+00  2.900E+00
  2.000E-02  3.062E-01  1.016E+05 -4.729E-11  6.500E-02  2.946E+00  2.944E+00
  2.000E-02  3.125E-01  1.015E+05 -2.755E-11  6.500E-02  2.966E+00  2.965E+00
  2.000E-02  3.188E-01  1.015E+05 -1.342E-12  6.500E-02  2.963E+00  2.963E+00
  2.000E-02  3.251E-01  1.015E+05  2.632E-11  6.500E-02  2.937E+00  2.938E+00
  2.000E-02  3.314E-01  1.015E+05  4.369E-11  6.500E-02  2.888E+00  2.890E+00
  2.000E-02  3.377E-01  1.015E+05  4.866E-11  6.500E-02  2.819E+00  2.822E+00
  2.000E-02  3.440E-01  1.015E+05  3.248E-11  6.500E-02  2.731E+00  2.735E+00
  2.000E-02  3.503E-01  1.015E+05  1.304E-11  6.500E-02  2.626E+00  2.631E+00
  2.000E-02  3.567E-01  1.015E+05 -1.334E-11  6.500E-02  2.508E+00  2.513E+00
  2.000E-02  3.630E-01  1.015E+05 -3.638E-11  6.501E-02  2.379E+00  2.385E+00
  2.000E-02  3.693E-01  1.015E+05 -3.617E-11  6.500E-02  2.242E+00  2.248E+00
  2.000E-02  3.756E-01  1.015E+05 -2.534E-11  6.500E-02  2.100E+00  2.107E+00
  2.000E-02  3.819E-01  1.015E+05 -1.252E-11  6.500E-02  1.956E+00  1.963E+00
  2.000E-02  3.882E-01  1.015E+05 -9.838E-12  6.500E-02  1.812E+00  1.818E+00
  2.000E-02  3.945E-01  1.015E+05 -5.413E-12  6.500E-02  1.670E+00  1.677E+00
  2.000E-02  4.008E-01  1.014E+05  1.045E-11  6.500E-02  1.532E+00  1.539E+00
  2.000E-02  4.072E-01  1.014E+05  3.958E-11  6.500E-02  1.401E+00  1.407E+00
  2.000E-02  4.135E-01  1.014E+05  5.337E-11  6.500E-02  1.276E+00  1.282E+00
  2.000E-02  4.198E-01  1.014E+05  4.501E-11  6.500E-02  1.160E+00  1.165E+00
  2.000E-02  4.261E-01  1.014E+05 -5.435E-13  6.500E-02  1.052E+00  1.057E+00
  2.000E-02  4.324E-01  1.014E+05 -4.715E-11  6.501E-02  9.529E-01  9.576E-01
  2.000E-02  4.387E-01  1.014E+05 -6.479E-11  6.500E-02  8.628E-01  8.671E-01
  2.000E-02  4.450E-01  1.014E+05 -4.835E-11  6.500E-02  7.814E-01  7.853E-01
  2.000E-02  4.513E-01  1.014E+05  8.609E-12  6.500E-02  7.085E-01  7.120E-01
  2.000E-02  4.577E-01  1.014E+05  5.508E-11  6.500E-02  6.436E-01  6.467E-01
  2.000E-02  4.640E-01  1.014E+05  6.626E-11  6.500E-02  5.861E-01  5.889E-01
  2.000E-02  4.703E-01  1.014E+05  3.536E-11  6.500E-02  5.356E-01  5.380E-01
  2.000E-02  4.766E-01  1.014E+05 -1.513E-11  6.500E-02  4.913E-01  4.934E-01
  2.000E-02  4.829E-01  1.014E+05 -6.617E-11  6.500E-02  4.528E-01  4.546E-01
  2.000E-02  4.892E-01  1.013E+05 -9.106E-11  6.500E-02  4.198E-01  4.213E-01
  2.000E-02  4.955E-01  1.013E+05 -9.502E-11  6.500E-02  3.928E-01  3.941E-01
  2.000E-02  5.018E-01  1.013E+05 -9.705E-11  6.500E-02  3.745E-01  3.754E-01
  2.000E-02  5.050E-01  1.013E+05 -9.705E-11  6.500E-02  3.745E-01  3.754E-01
  2.800E-02  0.000E+00  1.019E+05  4.110E-07  6.500E-02  7.687E-01  7.687E-01
  2.800E-02  3.156E-03  1.019E+05  4.110E-07  6.498E-02  7.687E-01  7.687E-01
  2.800E-02  9.469E-03  1.019E+05  3.558E-07  6.500E-02  7.687E-01  7.687E-01
  2.800E-02  1.578E-02  1.019E+05  3.477E-07  6.500E-02  7.687E-01  7.687E-01
  2.800E-02  2.209E-02  1.019E+05  3.357E-07  6.500E-02  7.687E-01  7.687E-01
  2.800E-02  2.841E-02  1.019E+05  9.433E-07  6.501E-02  7.687E-01  7.687E-01
  2.800E-02  3.472E-02  1.019E+05  9.450E-07  6.500E-02  7.687E-01  7.687E-01
  2.800E-02  4.103E-02  1.019E+05  8.753E-07  6.500E-02  7.688E-01  7.687E-01
  2.800E-02  4.734E-02  1.019E+05  1.945E-07  6.500E-02  7.688E-01  7.688E-01
  2.800E-02  5.366E-02  1.019E+05  1.262E-07  6.500E-02  7.688E-01  7.688E-01
  2.800E-02  5.997E-02  1.018E+05  5.407E-08  6.500E-02  7.688E-01  7.688E-01
  2.800E-02  6.628E-02  1.018E+05  3.244E-08  6.500E-02  7.689E-01  7.689E-01
  2.800E-02  7.259E-02  1.018E+05  2.058E-08  6.500E-02  7.690E-01  7.690E-01
  2.800E-02  7.891E-02  1.018E+05  1.461E-08  6.500E-02  7.691E-01  7.691E-01
  2.800E-02  8.522E-02  1.018E+05  1.094E-08  6.500E-02  7.694E-01  7.693E-01
  2.800E-02  9.153E-02  1.018E+05  8.440E-09  6.500E-02  7.697E-01  7.697E-01
  2.800E-02  9.784E-02  1.018E+05  6.555E-09  6.501E-02  7.703E-01  7.703E-01
  2.800E-02  1.042E-01  1.018E+05  5.136E-09  6.500E-02  7.711E-01  7.711E-01
  2.800E-02  1.105E-01  1.018E+05  4.069E-09  6.500E-02  7.724E-01  7.724E-01
  2.800E-02  1.168E-01  1.018E+05  3.219E-09  6.500E-02  7.743E-01  7.742E-01
  2.800E-02  1.231E-01  1.018E+05  2.551E-09  6.500E-02  7.770E-01  7.768E-01
  2.800E-02  1.294E-01  1.018E+05  1.977E-09  6.500E-02  7.808E-01  7.806E-01
  2.800E-02  1.357E-01  1.018E+05  1.514E-09  6.500E-02  7.861E-01  7.859E-01
  2.800E-02  1.420E-01  1.017E+05  1.207E-09  6.500E-02  7.935E-01  7.932E-01
  2.800E-02  1.483E-01  1.017E+05  9.401E-10  6.500E-02  8.035E-01  8.030E-01
  2.800E-02  1.547E-01  1.017E+05  7.252E-10  6.500E-02  8.168E-01  8.162E-01
  2.800E-02  1.610E-01  1.017E+05  5.553E-10  6.500E-02  8.344E-01  8.336E-01
  2.800E-02  1.673E-01  1.017E+05  4.427E-10  6.501E-02  8.570E-01  8.560E-01
  2.800E-02  1.736E-01  1.017E+05  3.788E-10  6.500E-02  8.859E-01  8.845E-01
  2.800E-02  1.799E-01  1.017E+05  3.359E-10  6.500E-02  9.220E-01  9.203E-01
  2.800E-02  1.862E-01  1.017E+05  2.960E-10  6.500E-02  9.665E-01  9.644E-01
  2.800E-02  1.925E-01  1.017E+05  2.360E-10  6.500E-02  1.020E+00  1.018E+00
  2.800E-02  1.988E-01  1.017E+05  1.729E-10  6.500E-02  1.085E+00  1.082E+00
  2.800E-02  2.052E-01  1.017E+05  1.115E-10  6.500E-02  1.160E+00  1.156E+00
  2.800E-02  2.115E-01  1.017E+05  6.835E-11  6.500E-02  1.247E+00  1.243E+00
  2.800E-02  2.178E-01  1.017E+05  3.363E-11  6.500E-02  1.345E+00  1.341E+00
  2.800E-02  2.241E-01  1.017E+05  1.687E-11  6.500E-02  1.455E+00  1.450E+00
  2.800E-02  2.304E-01  1.016E+05 -1.249E-13  6.500E-02  1.575E+00  1.569E+00
  2.800E-02  2.367E-01  1.016E+05 -4.934E-12  6.501E-02  1.704E+00  1.698E+00
  2.800E-02  2.430E-01  1.016E+05  7.620E-12  6.500E-02  1.840E+00  1.834E+00
  2.800E-02  2.493E-01  1.016E+05  2.441E-11  6.500E-02  1.981E+00  1.975E+00
  2.800E-02  2.557E-01  1.016E+05  4.147E-11  6.500E-02  2.124E+00  2.118E+00
  2.800E-02  2.620E-01  1.016E+05  3.863E-11  6.500E-02  2.266E+00  2.259E+00
  2.800E-02  2.683E-01  1.016E+05  2.312E-11  6.500E-02  2.403E+00  2.397E+00
  2.800E-02  2.746E-01  1.016E+05  2.391E-13  6.500E-02  2.532E+00  2.526E+00
  2.800E-02  2.809E-01  1.016E+05 -8.046E-12  6.500E-02  2.649E+00  2.644E+00
  2.800E-02  2.872E-01  1.016E+05 -1.426E-11  6.500E-02  2.752E+00  2.747E+00
  2.800E-02  2.935E-01  1.016E+05 -1.923E-11  6.501E-02  2.837E+00  2.833E+00
  2.800E-02  2.998E-01  1.016E+05 -1.784E-11  6.500E-02  2.902E+00  2.899E+00
  2.800E-02  3.062E-01  1.016E+05 -1.546E-11  6.500E-02  2.946E+00  2.943E+00
  2.800E-02  3.125E-01  1.015E+05 -5.730E-12  6.500E-02  2.966E+00  2.965E+00
  2.800E-02  3.188E-01  1.015E+05  3.015E-12  6.500E-02  2.963E+00  2.963E+00
  2.800E-02  3.251E-01  1.015E+05  1.464E-11  6.500E-02  2.937E+00  2.938E+00
  2.800E-02  3.314E-01  1.015E+05  1.309E-11  6.500E-02  2.888E+00  2.891E+00
  2.800E-02  3.377E-01  1.015E+05  6.556E-12  6.500E-02  2.819E+00  2.822E+00