VARIABLES="XP","YP","P","U","V","TS","TF"
ZONE T="Zone 001"I=    82 J=    22 F=POINT
  0.000E+00  0.000E+00  1.019E+05  0.000E+00  0.000E+00  2.938E+02  2.938E+02
  0.000E+00  3.156E-03  1.019E+05  0.000E+00  0.000E+00  2.938E+02  2.938E+02
  0.000E+00  9.469E-03  1.019E+05  0.000E+00  0.000E+00  2.938E+02  2.938E+02
  0.000E+00  1.578E-02  1.019E+05  0.000E+00  0.000E+00  2.938E+02  2.938E+02
  0.000E+00  2.209E-02  1.019E+05  0.000E+00  0.000E+00  2.938E+02  2.938E+02
  0.000E+00  2.841E-02  1.019E+05  0.000E+00  0.000E+00  2.938E+02  2.938E+02
  0.000E+00  3.472E-02  1.019E+05  0.000E+00  0.000E+00  2.938E+02  2.938E+02
  0.000E+00  4.103E-02  1.019E+05  0.000E+00  0.000E+00  2.938E+02  2.938E+02
  0.000E+00  4.734E-02  1.019E+05  0.000E+00  0.000E+00  2.938E+02  2.938E+02
  0.000E+00  5.366E-02  1.019E+05  0.000E+00  0.000E+00  2.938E+02  2.938E+02
  0.000E+00  5.997E-02  1.018E+05  0.000E+00  0.000E+00  2.938E+02  2.938E+02
  0.000E+00  6.628E-02  1.018E+05  0.000E+00  0.000E+00  2.938E+02  2.938E+02
  0.000E+00  7.259E-02  1.018E+05  0.000E+00  0.000E+00  2.938E+02  2.938E+02
  0.000E+00  7.891E-02  1.018E+05  0.000E+00  0.000E+00  2.938E+02  2.938E+02
  0.000E+00  8.522E-02  1.018E+05  0.000E+00  0.000E+00  2.938E+02  2.938E+02
  0.000E+00  9.153E-02  1.018E+05  0.000E+00  0.000E+00  2.938E+02  2.938E+02
  0.000E+00  9.784E-02  1.018E+05  0.000E+00  0.000E+00  2.938E+02  2.938E+02
  0.000E+00  1.042E-01  1.018E+05  0.000E+00  0.000E+00  2.938E+02  2.938E+02
  0.000E+00  1.105E-01  1.018E+05  0.000E+00  0.000E+00  2.938E+02  2.938E+02
  0.000E+00  1.168E-01  1.018E+05  0.000E+00  0.000E+00  2.938E+02  2.938E+02
  0.000E+00  1.231E-01  1.018E+05  0.000E+00  0.000E+00  2.939E+02  2.939E+02
  0.000E+00  1.294E-01  1.018E+05  0.000E+00  0.000E+00  2.939E+02  2.939E+02
  0.000E+00  1.357E-01  1.018E+05  0.000E+00  0.000E+00  2.939E+02  2.939E+02
  0.000E+00  1.420E-01  1.017E+05  0.000E+00  0.000E+00  2.940E+02  2.940E+02
  0.000E+00  1.483E-01  1.017E+05  0.000E+00  0.000E+00  2.941E+02  2.941E+02
  0.000E+00  1.547E-01  1.017E+05  0.000E+00  0.000E+00  2.941E+02  2.941E+02
  0.000E+00  1.610E-01  1.017E+05  0.000E+00  0.000E+00  2.943E+02  2.942E+02
  0.000E+00  1.673E-01  1.017E+05  0.000E+00  0.000E+00  2.944E+02  2.944E+02
  0.000E+00  1.736E-01  1.017E+05  0.000E+00  0.000E+00  2.945E+02  2.945E+02
  0.000E+00  1.799E-01  1.017E+05  0.000E+00  0.000E+00  2.947E+02  2.947E+02
  0.000E+00  1.862E-01  1.017E+05  0.000E+00  0.000E+00  2.949E+02  2.948E+02
  0.000E+00  1.925E-01  1.017E+05  0.000E+00  0.000E+00  2.950E+02  2.950E+02
  0.000E+00  1.988E-01  1.017E+05  0.000E+00  0.000E+00  2.952E+02  2.952E+02
  0.000E+00  2.052E-01  1.017E+05  0.000E+00  0.000E+00  2.954E+02  2.954E+02
  0.000E+00  2.115E-01  1.017E+05  0.000E+00  0.000E+00  2.956E+02  2.956E+02
  0.000E+00  2.178E-01  1.017E+05  0.000E+00  0.000E+00  2.958E+02  2.958E+02
  0.000E+00  2.241E-01  1.017E+05  0.000E+00  0.000E+00  2.960E+02  2.960E+02
  0.000E+00  2.304E-01  1.016E+05  0.000E+00  0.000E+00  2.961E+02  2.961E+02
  0.000E+00  2.367E-01  1.016E+05  0.000E+00  0.000E+00  2.962E+02  2.962E+02
  0.000E+00  2.430E-01  1.016E+05  0.000E+00  0.000E+00  2.963E+02  2.963E+02
  0.000E+00  2.493E-01  1.016E+05  0.000E+00  0.000E+00  2.964E+02  2.964E+02
  0.000E+00  2.557E-01  1.016E+05  0.000E+00  0.000E+00  2.964E+02  2.964E+02
  0.000E+00  2.620E-01  1.016E+05  0.000E+00  0.000E+00  2.963E+02  2.963E+02
  0.000E+00  2.683E-01  1.016E+05  0.000E+00  0.000E+00  2.963E+02  2.963E+02
  0.000E+00  2.746E-01  1.016E+05  0.000E+00  0.000E+00  2.962E+02  2.962E+02
  0.000E+00  2.809E-01  1.016E+05  0.000E+00  0.000E+00  2.960E+02  2.960E+02
  0.000E+00  2.872E-01  1.016E+05  0.000E+00  0.000E+00  2.959E+02  2.959E+02
  0.000E+00  2.935E-01  1.016E+05  0.000E+00  0.000E+00  2.957E+02  2.957E+02
  0.000E+00  2.998E-01  1.016E+05  0.000E+00  0.000E+00  2.955E+02  2.956E+02
  0.000E+00  3.062E-01  1.016E+05  0.000E+00  0.000E+00  2.954E+02  2.954E+02
  0.000E+00  3.125E-01  1.015E+05  0.000E+00  0.000E+00  2.952E+02  2.952E+02
  0.000E+00  3.188E-01  1.015E+05  0.000E+00  0.000E+00  2.950E+02  2.950E+02
  0.000E+00  3.251E-01  1.015E+05  0.000E+00  0.000E+00  2.948E+02  2.948E+02
  0.000E+00  3.314E-01  1.015E+05  0.000E+00  0.000E+00  2.946E+02  2.946E+02
  0.000E+00  3.377E-01  1.015E+05  0.000E+00  0.000E+00  2.944E+02  2.945E+02
  0.000E+00  3.440E-01  1.015E+05  0.000E+00  0.000E+00  2.943E+02  2.943E+02
  0.000E+00  3.503E-01  1.015E+05  0.000E+00  0.000E+00  2.942E+02  2.942E+02
  0.000E+00  3.567E-01  1.015E+05  0.000E+00  0.000E+00  2.940E+02  2.940E+02
  0.000E+00  3.630E-01  1.015E+05  0.000E+00  0.000E+00  2.939E+02  2.939E+02
  0.000E+00  3.693E-01  1.015E+05  0.000E+00  0.000E+00  2.938E+02  2.938E+02
  0.000E+00  3.756E-01  1.015E+05  0.000E+00  0.000E+00  2.937E+02  2.937E+02
  0.000E+00  3.819E-01  1.015E+05  0.000E+00  0.000E+00  2.936E+02  2.937E+02
  0.000E+00  3.882E-01  1.015E+05  0.000E+00  0.000E+00  2.936E+02  2.936E+02
  0.000E+00  3.945E-01  1.015E+05  0.000E+00  0.000E+00  2.935E+02  2.935E+02
  0.000E+00  4.008E-01  1.014E+05  0.000E+00  0.000E+00  2.935E+02  2.935E+02
  0.000E+00  4.072E-01  1.014E+05  0.000E+00  0.000E+00  2.934E+02  2.934E+02
  0.000E+00  4.135E-01  1.014E+05  0.000E+00  0.000E+00  2.934E+02  2.934E+02
  0.000E+00  4.198E-01  1.014E+05  0.000E+00  0.000E+00  2.934E+02  2.934E+02
  0.000E+00  4.261E-01  1.014E+05  0.000E+00  0.000E+00  2.933E+02  2.933E+02
  0.000E+00  4.324E-01  1.014E+05  0.000E+00  0.000E+00  2.933E+02  2.933E+02
  0.000E+00  4.387E-01  1.014E+05  0.000E+00  0.000E+00  2.933E+02  2.933E+02
  0.000E+00  4.450E-01  1.014E+05  0.000E+00  0.000E+00  2.933E+02  2.933E+02
  0.000E+00  4.513E-01  1.014E+05  0.000E+00  0.000E+00  2.933E+02  2.933E+02
  0.000E+00  4.577E-01  1.014E+05  0.000E+00  0.000E+00  2.933E+02  2.933E+02
  0.000E+00  4.640E-01  1.014E+05  0.000E+00  0.000E+00  2.933E+02  2.933E+02
  0.000E+00  4.703E-01  1.014E+05  0.000E+00  0.000E+00  2.932E+02  2.932E+02
  0.000E+00  4.766E-01  1.014E+05  0.000E+00  0.000E+00  2.932E+02  2.932E+02
  0.000E+00  4.829E-01  1.014E+05  0.000E+00  0.000E+00  2.932E+02  2.932E+02
  0.000E+00  4.892E-01  1.013E+05  0.000E+00  0.000E+00  2.932E+02  2.932E+02
  0.000E+00  4.955E-01  1.013E+05  0.000E+00  0.000E+00  2.932E+02  2.932E+02
  0.000E+00  5.018E-01  1.013E+05  0.000E+00  0.000E+00  2.932E+02  2.932E+02
  0.000E+00  5.050E-01  1.013E+05  0.000E+00  0.000E+00  2.932E+02  2.932E+02
  4.000E-03  0.000E+00  1.019E+05  8.159E-07  6.500E-02  2.938E+02  2.938E+02
  4.000E-03  3.156E-03  1.019E+05  8.159E-07  6.498E-02  2.938E+02  2.938E+02
  4.000E-03  9.469E-03  1.019E+05  3.451E-07  6.499E-02  2.938E+02  2.938E+02
  4.000E-03  1.578E-02  1.019E+05  2.431E-07  6.500E-02  2.938E+02  2.938E+02
  4.000E-03  2.209E-02  1.019E+05  2.384E-07  6.499E-02  2.938E+02  2.938E+02
  4.000E-03  2.841E-02  1.019E+05  7.592E-07  6.499E-02  2.938E+02  2.938E+02
  4.000E-03  3.472E-02  1.019E+05  1.433E-06  6.500E-02  2.938E+02  2.938E+02
  4.000E-03  4.103E-02  1.019E+05  7.270E-07  6.500E-02  2.938E+02  2.938E+02
  4.000E-03  4.734E-02  1.019E+05  1.560E-07  6.500E-02  2.938E+02  2.938E+02
  4.000E-03  5.366E-02  1.019E+05  7.211E-08  6.499E-02  2.938E+02  2.938E+02
  4.000E-03  5.997E-02  1.018E+05  1.917E-08  6.499E-02  2.938E+02  2.938E+02
  4.000E-03  6.628E-02  1.018E+05  6.982E-09  6.499E-02  2.938E+02  2.938E+02
  4.000E-03  7.259E-02  1.018E+05  2.514E-09  6.499E-02  2.938E+02  2.938E+02
  4.000E-03  7.891E-02  1.018E+05  1.411E-09  6.499E-02  2.938E+02  2.938E+02
  4.000E-03  8.522E-02  1.018E+05  1.049E-09  6.499E-02  2.938E+02  2.938E+02
  4.000E-03  9.153E-02  1.018E+05  9.285E-10  6.500E-02  2.938E+02  2.938E+02
  4.000E-03  9.784E-02  1.018E+05  8.523E-10  6.500E-02  2.938E+02  2.938E+02
  4.000E-03  1.042E-01  1.018E+05  7.076E-10  6.500E-02  2.938E+02  2.938E+02
  4.000E-03  1.105E-01  1.018E+05  5.971E-10  6.499E-02  2.938E+02  2.938E+02
  4.000E-03  1.168E-01  1.018E+05  5.126E-10  6.499E-02  2.938E+02  2.938E+02
  4.000E-03  1.231E-01  1.018E+05  3.850E-10  6.499E-02  2.939E+02  2.939E+02
  4.000E-03  1.294E-01  1.018E+05  3.209E-10  6.499E-02  2.939E+02  2.939E+02
  4.000E-03  1.357E-01  1.018E+05  3.256E-10  6.499E-02  2.939E+02  2.939E+02
  4.000E-03  1.420E-01  1.017E+05  2.826E-10  6.499E-02  2.940E+02  2.940E+02
  4.000E-03  1.483E-01  1.017E+05  2.073E-10  6.499E-02  2.941E+02  2.941E+02
  4.000E-03  1.547E-01  1.017E+05  1.563E-10  6.499E-02  2.941E+02  2.941E+02
  4.000E-03  1.610E-01  1.017E+05  1.212E-10  6.500E-02  2.943E+02  2.942E+02
  4.000E-03  1.673E-01  1.017E+05  7.174E-11  6.500E-02  2.944E+02  2.944E+02
  4.000E-03  1.736E-01  1.017E+05  2.528E-11  6.500E-02  2.945E+02  2.945E+02
  4.000E-03  1.799E-01  1.017E+05 -1.034E-11  6.499E-02  2.947E+02  2.947E+02
  4.000E-03  1.862E-01  1.017E+05  1.454E-11  6.499E-02  2.949E+02  2.948E+02
  4.000E-03  1.925E-01  1.017E+05  4.645E-11  6.499E-02  2.950E+02  2.950E+02
  4.000E-03  1.988E-01  1.017E+05  2.657E-11  6.499E-02  2.952E+02  2.952E+02
  4.000E-03  2.052E-01  1.017E+05  5.571E-12  6.499E-02  2.954E+02  2.954E+02
  4.000E-03  2.115E-01  1.017E+05  2.495E-11  6.499E-02  2.956E+02  2.956E+02
  4.000E-03  2.178E-01  1.017E+05  4.386E-11  6.499E-02  2.958E+02  2.958E+02
  4.000E-03  2.241E-01  1.017E+05  3.136E-13  6.499E-02  2.960E+02  2.960E+02
  4.000E-03  2.304E-01  1.016E+05  3.068E-11  6.500E-02  2.961E+02  2.961E+02
  4.000E-03  2.367E-01  1.016E+05  3.696E-11  6.500E-02  2.962E+02  2.962E+02
  4.000E-03  2.430E-01  1.016E+05 -1.289E-11  6.500E-02  2.963E+02  2.963E+02
  4.000E-03  2.493E-01  1.016E+05 -4.299E-11  6.499E-02  2.964E+02  2.964E+02
  4.000E-03  2.557E-01  1.016E+05 -1.850E-11  6.499E-02  2.964E+02  2.964E+02
  4.000E-03  2.620E-01  1.016E+05  1.241E-11  6.499E-02  2.963E+02  2.963E+02
  4.000E-03  2.683E-01  1.016E+05 -3.699E-12  6.499E-02  2.963E+02  2.963E+02
  4.000E-03  2.746E-01  1.016E+05  1.013E-12  6.499E-02  2.962E+02  2.962E+02
  4.000E-03  2.809E-01  1.016E+05 -1.306E-11  6.499E-02  2.960E+02  2.960E+02
  4.000E-03  2.872E-01  1.016E+05  3.576E-13  6.500E-02  2.959E+02  2.959E+02
  4.000E-03  2.935E-01  1.016E+05  3.114E-11  6.500E-02  2.957E+02  2.957E+02
  4.000E-03  2.998E-01  1.016E+05  8.623E-12  6.500E-02  2.955E+02  2.956E+02
  4.000E-03  3.062E-01  1.016E+05 -3.487E-11  6.499E-02  2.954E+02  2.954E+02
  4.000E-03  3.125E-01  1.015E+05 -2.436E-12  6.499E-02  2.952E+02  2.952E+02
  4.000E-03  3.188E-01  1.015E+05  2.698E-11  6.499E-02  2.950E+02  2.950E+02
  4.000E-03  3.251E-01  1.015E+05 -3.500E-12  6.499E-02  2.948E+02  2.948E+02
  4.000E-03  3.314E-01  1.015E+05 -3.172E-11  6.499E-02  2.946E+02  2.946E+02
  4.000E-03  3.377E-01  1.015E+05 -8.220E-12  6.499E-02  2.944E+02  2.945E+02
  4.000E-03  3.440E-01  1.015E+05  1.983E-11  6.499E-02  2.943E+02  2.943E+02
  4.000E-03  3.503E-01  1.015E+05 -1.871E-11  6.499E-02  2.942E+02  2.942E+02
  4.000E-03  3.567E-01  1.015E+05 -6.175E-12  6.500E-02  2.940E+02  2.940E+02
  4.000E-03  3.630E-01  1.015E+05  2.768E-11  6.500E-02  2.939E+02  2.939E+02
  4.000E-03  3.693E-01  1.015E+05  1.248E-11  6.500E-02  2.938E+02  2.938E+02
  4.000E-03  3.756E-01  1.015E+05 -2.914E-11  6.499E-02  2.937E+02  2.937E+02
  4.000E-03  3.819E-01  1.015E+05 -1.545E-12  6.499E-02  2.936E+02  2.937E+02
  4.000E-03  3.882E-01  1.015E+05  3.054E-11  6.499E-02  2.936E+02  2.936E+02
  4.000E-03  3.945E-01  1.015E+05  5.594E-12  6.499E-02  2.935E+02  2.935E+02
  4.000E-03  4.008E-01  1.014E+05 -2.229E-11  6.499E-02  2.935E+02  2.935E+02
  4.000E-03  4.072E-01  1.014E+05 -5.532E-12  6.499E-02  2.934E+02  2.934E+02
  4.000E-03  4.135E-01  1.014E+05  1.639E-11  6.499E-02  2.934E+02  2.934E+02
  4.000E-03  4.198E-01  1.014E+05 -2.164E-11  6.499E-02  2.934E+02  2.934E+02
  4.000E-03  4.261E-01  1.014E+05  1.610E-11  6.500E-02  2.933E+02  2.933E+02
  4.000E-03  4.324E-01  1.014E+05  1.275E-11  6.500E-02  2.933E+02  2.933E+02
  4.000E-03  4.387E-01  1.014E+05 -5.610E-12  6.500E-02  2.933E+02  2.933E+02
  4.000E-03  4.450E-01  1.014E+05 -8.897E-12  6.499E-02  2.933E+02  2.933E+02
  4.000E-03  4.513E-01  1.014E+05 -6.538E-12  6.499E-02  2.933E+02  2.933E+02
  4.000E-03  4.577E-01  1.014E+05  1.731E-11  6.499E-02  2.933E+02  2.933E+02
  4.000E-03  4.640E-01  1.014E+05 -1.925E-12  6.499E-02  2.933E+02  2.933E+02
  4.000E-03  4.703E-01  1.014E+05  6.721E-12  6.499E-02  2.932E+02  2.932E+02
  4.000E-03  4.766E-01  1.014E+05  1.152E-11  6.499E-02  2.932E+02  2.932E+02
  4.000E-03  4.829E-01  1.014E+05  9.856E-12  6.499E-02  2.932E+02  2.932E+02
  4.000E-03  4.892E-01  1.013E+05 -6.445E-12  6.499E-02  2.932E+02  2.932E+02
  4.000E-03  4.955E-01  1.013E+05 -2.137E-11  6.499E-02  2.932E+02  2.932E+02
  4.000E-03  5.018E-01  1.013E+05 -3.519E-11  6.500E-02  2.932E+02  2.932E+02
  4.000E-03  5.050E-01  1.013E+05 -3.519E-11  6.500E-02  2.932E+02  2.932E+02
  1.200E-02  0.000E+00  1.019E+05  1.109E-06  6.500E-02  2.938E+02  2.938E+02
  1.200E-02  3.156E-03  1.019E+05  1.109E-06  6.498E-02  2.938E+02  2.938E+02
  1.200E-02  9.469E-03  1.019E+05  4.972E-07  6.500E-02  2.938E+02  2.938E+02
  1.200E-02  1.578E-02  1.019E+05  2.964E-07  6.500E-02  2.938E+02  2.938E+02
  1.200E-02  2.209E-02  1.019E+05 -4.991E-07  6.500E-02  2.938E+02  2.938E+02
  1.200E-02  2.841E-02  1.019E+05  2.598E-06  6.500E-02  2.938E+02  2.938E+02
  1.200E-02  3.472E-02  1.019E+05  8.146E-06  6.500E-02  2.938E+02  2.938E+02
  1.200E-02  4.103E-02  1.019E+05  2.552E-06  6.501E-02  2.938E+02  2.938E+02
  1.200E-02  4.734E-02  1.019E+05 -6.636E-07  6.500E-02  2.938E+02  2.938E+02
  1.200E-02  5.366E-02  1.019E+05 -2.332E-08  6.500E-02  2.938E+02  2.938E+02
  1.200E-02  5.997E-02  1.018E+05 -4.738E-08  6.500E-02  2.938E+02  2.938E+02
  1.200E-02  6.628E-02  1.018E+05 -1.260E-08  6.500E-02  2.938E+02  2.938E+02
  1.200E-02  7.259E-02  1.018E+05 -4.107E-09  6.500E-02  2.938E+02  2.938E+02
  1.200E-02  7.891E-02  1.018E+05  4.822E-10  6.500E-02  2.938E+02  2.938E+02
  1.200E-02  8.522E-02  1.018E+05  2.027E-09  6.500E-02  2.938E+02  2.938E+02
  1.200E-02  9.153E-02  1.018E+05  2.477E-09  6.500E-02  2.938E+02  2.938E+02
  1.200E-02  9.784E-02  1.018E+05  2.465E-09  6.501E-02  2.938E+02  2.938E+02
  1.200E-02  1.042E-01  1.018E+05  2.209E-09  6.500E-02  2.938E+02  2.938E+02
  1.200E-02  1.105E-01  1.018E+05  1.897E-09  6.500E-02  2.938E+02  2.938E+02
  1.200E-02  1.168E-01  1.018E+05  1.605E-09  6.500E-02  2.938E+02  2.938E+02
  1.200E-02  1.231E-01  1.018E+05  1.316E-09  6.500E-02  2.939E+02  2.939E+02
  1.200E-02  1.294E-01  1.018E+05  1.086E-09  6.500E-02  2.939E+02  2.939E+02
  1.200E-02  1.357E-01  1.018E+05  9.087E-10  6.500E-02  2.939E+02  2.939E+02
  1.200E-02  1.420E-01  1.017E+05  6.848E-10  6.500E-02  2.940E+02  2.940E+02
  1.200E-02  1.483E-01  1.017E+05  4.493E-10  6.500E-02  2.941E+02  2.941E+02
  1.200E-02  1.547E-01  1.017E+05  2.916E-10  6.500E-02  2.941E+02  2.941E+02
  1.200E-02  1.610E-01  1.017E+05  1.988E-10  6.500E-02  2.942E+02  2.942E+02
  1.200E-02  1.673E-01  1.017E+05  1.300E-10  6.501E-02  2.944E+02  2.944E+02
  1.200E-02  1.736E-01  1.017E+05  9.924E-11  6.500E-02  2.945E+02  2.945E+02
  1.200E-02  1.799E-01  1.017E+05  1.040E-10  6.500E-02  2.947E+02  2.947E+02
  1.200E-02  1.862E-01  1.017E+05  1.686E-10  6.500E-02  2.949E+02  2.948E+02
  1.200E-02  1.925E-01  1.017E+05  1.985E-10  6.500E-02  2.950E+02  2.950E+02
  1.200E-02  1.988E-01  1.017E+05  1.438E-10  6.500E-02  2.952E+02  2.952E+02
  1.200E-02  2.052E-01  1.017E+05  7.395E-11  6.500E-02  2.954E+02  2.954E+02
  1.200E-02  2.115E-01  1.017E+05  6.716E-11  6.500E-02  2.956E+02  2.956E+02
  1.200E-02  2.178E-01  1.017E+05  7.008E-11  6.500E-02  2.958E+02  2.958E+02
  1.200E-02  2.241E-01  1.017E+05  8.106E-12  6.500E-02  2.960E+02  2.960E+02
  1.200E-02  2.304E-01  1.016E+05  1.268E-11  6.500E-02  2.961E+02  2.961E+02
  1.200E-02  2.367E-01  1.016E+05 -2.062E-11  6.501E-02  2.962E+02  2.962E+02
  1.200E-02  2.430E-01  1.016E+05 -9.981E-11  6.500E-02  2.963E+02  2.963E+02
  1.200E-02  2.493E-01  1.016E+05 -1.120E-10  6.500E-02  2.964E+02  2.964E+02
  1.200E-02  2.557E-01  1.016E+05 -2.431E-11  6.500E-02  2.964E+02  2.964E+02
  1.200E-02  2.620E-01  1.016E+05  6.616E-11  6.500E-02  2.963E+02  2.963E+02
  1.200E-02  2.683E-01  1.016E+05  7.896E-11  6.500E-02  2.963E+02  2.963E+02
  1.200E-02  2.746E-01  1.016E+05  6.635E-11  6.500E-02  2.962E+02  2.962E+02
  1.200E-02  2.809E-01  1.016E+05  1.157E-11  6.500E-02  2.960E+02  2.960E+02
  1.200E-02  2.872E-01  1.016E+05 -1.140E-11  6.500E-02  2.959E+02  2.959E+02
  1.200E-02  2.935E-01  1.016E+05  2.921E-12  6.501E-02  2.957E+02  2.957E+02
  1.200E-02  2.998E-01  1.016E+05 -2.570E-11  6.500E-02  2.955E+02  2.956E+02
  1.200E-02  3.062E-01  1.016E+05 -7.329E-11  6.500E-02  2.954E+02  2.954E+02
  1.200E-02  3.125E-01  1.015E+05 -3.786E-11  6.500E-02  2.952E+02  2.952E+02
  1.200E-02  3.188E-01  1.015E+05 -3.372E-12  6.500E-02  2.950E+02  2.950E+02
  1.200E-02  3.251E-01  1.015E+05 -1.177E-11  6.500E-02  2.948E+02  2.948E+02
  1.200E-02  3.314E-01  1.015E+05 -1.780E-11  6.500E-02  2.946E+02  2.946E+02
  1.200E-02  3.377E-01  1.015E+05  3.017E-11  6.500E-02  2.944E+02  2.945E+02
  1.200E-02  3.440E-01  1.015E+05  6.334E-11  6.500E-02  2.943E+02  2.943E+02
  1.200E-02  3.503E-01  1.015E+05  1.016E-11  6.500E-02  2.942E+02  2.942E+02
  1.200E-02  3.567E-01  1.015E+05  1.143E-12  6.500E-02  2.940E+02  2.940E+02
  1.200E-02  3.630E-01  1.015E+05  1.644E-11  6.501E-02  2.939E+02  2.939E+02
  1.200E-02  3.693E-01  1.015E+05 -9.052E-12  6.500E-02  2.938E+02  2.938E+02
  1.200E-02  3.756E-01  1.015E+05 -4.856E-11  6.500E-02  2.937E+02  2.937E+02
  1.200E-02  3.819E-01  1.015E+05 -1.099E-11  6.500E-02  2.936E+02  2.937E+02
  1.200E-02  3.882E-01  1.015E+05  1.309E-11  6.500E-02  2.936E+02  2.936E+02
  1.200E-02  3.945E-01  1.015E+05 -1.970E-11  6.500E-02  2.935E+02  2.935E+02
  1.200E-02  4.008E-01  1.014E+05 -4.199E-11  6.500E-02  2.935E+02  2.935E+02
  1.200E-02  4.072E-01  1.014E+05  1.527E-11  6.500E-02  2.934E+02  2.934E+02
  1.200E-02  4.135E-01  1.014E+05  7.921E-11  6.500E-02  2.934E+02  2.934E+02
  1.200E-02  4.198E-01  1.014E+05  5.540E-11  6.500E-02  2.934E+02  2.934E+02
  1.200E-02  4.261E-01  1.014E+05  6.935E-11  6.500E-02  2.933E+02  2.933E+02
  1.200E-02  4.324E-01  1.014E+05  2.519E-12  6.501E-02  2.933E+02  2.933E+02
  1.200E-02  4.387E-01  1.014E+05 -7.489E-11  6.500E-02  2.933E+02  2.933E+02
  1.200E-02  4.450E-01  1.014E+05 -8.637E-11  6.500E-02  2.933E+02  2.933E+02
  1.200E-02  4.513E-01  1.014E+05 -3.908E-11  6.500E-02  2.933E+02  2.933E+02
  1.200E-02  4.577E-01  1.014E+05  4.210E-11  6.500E-02  2.933E+02  2.933E+02
  1.200E-02  4.640E-01  1.014E+05  5.876E-11  6.500E-02  2.933E+02  2.933E+02
  1.200E-02  4.703E-01  1.014E+05  5.609E-11  6.500E-02  2.932E+02  2.932E+02
  1.200E-02  4.766E-01  1.014E+05  1.756E-11  6.500E-02  2.932E+02  2.932E+02
  1.200E-02  4.829E-01  1.014E+05 -3.754E-11  6.500E-02  2.932E+02  2.932E+02
  1.200E-02  4.892E-01  1.013E+05 -8.373E-11  6.500E-02  2.932E+02  2.932E+02
  1.200E-02  4.955E-01  1.013E+05 -1.121E-10  6.500E-02  2.932E+02  2.932E+02
  1.200E-02  5.018E-01  1.013E+05 -1.248E-10  6.500E-02  2.932E+02  2.932E+02
  1.200E-02  5.050E-01  1.013E+05 -1.248E-10  6.500E-02  2.932E+02  2.932E+02
  2.000E-02  0.000E+00  1.019E+05  5.386E-07  6.500E-02  2.938E+02  2.938E+02
  2.000E-02  3.156E-03  1.019E+05  5.386E-07  6.498E-02  2.938E+02  2.938E+02
  2.000E-02  9.469E-03  1.019E+05  3.616E-07  6.500E-02  2.938E+02  2.938E+02
  2.000E-02  1.578E-02  1.019E+05  2.741E-07  6.500E-02  2.938E+02  2.938E+02
  2.000E-02  2.209E-02  1.019E+05 -4.735E-07  6.500E-02  2.938E+02  2.938E+02
  2.000E-02  2.841E-02  1.019E+05  2.660E-06  6.501E-02  2.938E+02  2.938E+02
  2.000E-02  3.472E-02  1.019E+05  8.158E-06  6.500E-02  2.938E+02  2.938E+02
  2.000E-02  4.103E-02  1.019E+05  2.610E-06  6.500E-02  2.938E+02  2.938E+02
  2.000E-02  4.734E-02  1.019E+05 -6.335E-07  6.500E-02  2.938E+02  2.938E+02
  2.000E-02  5.366E-02  1.019E+05 -5.815E-11  6.500E-02  2.938E+02  2.938E+02
  2.000E-02  5.997E-02  1.018E+05 -3.267E-08  6.500E-02  2.938E+02  2.938E+02
  2.000E-02  6.628E-02  1.018E+05 -2.601E-09  6.500E-02  2.938E+02  2.938E+02
  2.000E-02  7.259E-02  1.018E+05  2.684E-09  6.500E-02  2.938E+02  2.938E+02
  2.000E-02  7.891E-02  1.018E+05  5.293E-09  6.500E-02  2.938E+02  2.938E+02
  2.000E-02  8.522E-02  1.018E+05  5.617E-09  6.500E-02  2.938E+02  2.938E+02
  2.000E-02  9.153E-02  1.018E+05  5.192E-09  6.500E-02  2.938E+02  2.938E+02
  2.000E-02  9.784E-02  1.018E+05  4.475E-09  6.501E-02  2.938E+02  2.938E+02
  2.000E-02  1.042E-01  1.018E+05  3.748E-09  6.500E-02  2.938E+02  2.938E+02
  2.000E-02  1.105E-01  1.018E+05  3.100E-09  6.500E-02  2.938E+02  2.938E+02
  2.000E-02  1.168E-01  1.018E+05  2.519E-09  6.500E-02  2.938E+02  2.938E+02
  2.000E-02  1.231E-01  1.018E+05  2.049E-09  6.500E-02  2.939E+02  2.939E+02
  2.000E-02  1.294E-01  1.018E+05  1.648E-09  6.500E-02  2.939E+02  2.939E+02
  2.000E-02  1.357E-01  1.018E+05  1.248E-09  6.500E-02  2.939E+02  2.939E+02
  2.000E-02  1.420E-01  1.017E+05  9.035E-10  6.500E-02  2.940E+02  2.940E+02
  2.000E-02  1.483E-01  1.017E+05  6.547E-10  6.500E-02  2.941E+02  2.941E+02
  2.000E-02  1.547E-01  1.017E+05  4.671E-10  6.500E-02  2.941E+02  2.941E+02
  2.000E-02  1.610E-01  1.017E+05  3.546E-10  6.500E-02  2.942E+02  2.942E+02
  2.000E-02  1.673E-01  1.017E+05  3.032E-10  6.501E-02  2.944E+02  2.944E+02
  2.000E-02  1.736E-01  1.017E+05  2.864E-10  6.500E-02  2.945E+02  2.945E+02
  2.000E-02  1.799E-01  1.017E+05  2.750E-10  6.500E-02  2.947E+02  2.947E+02
  2.000E-02  1.862E-01  1.017E+05  2.623E-10  6.500E-02  2.949E+02  2.948E+02
  2.000E-02  1.925E-01  1.017E+05  2.265E-10  6.500E-02  2.950E+02  2.950E+02
  2.000E-02  1.988E-01  1.017E+05  1.780E-10  6.500E-02  2.952E+02  2.952E+02
  2.000E-02  2.052E-01  1.017E+05  1.246E-10  6.500E-02  2.954E+02  2.954E+02
  2.000E-02  2.115E-01  1.017E+05  8.789E-11  6.500E-02  2.956E+02  2.956E+02
  2.000E-02  2.178E-01  1.017E+05  4.857E-11  6.500E-02  2.958E+02  2.958E+02
  2.000E-02  2.241E-01  1.017E+05  4.729E-12  6.500E-02  2.960E+02  2.960E+02
  2.000E-02  2.304E-01  1.016E+05 -3.114E-11  6.500E-02  2.961E+02  2.961E+02
  2.000E-02  2.367E-01  1.016E+05 -5.605E-11  6.501E-02  2.962E+02  2.962E+02
  2.000E-02  2.430E-01  1.016E+05 -5.918E-11  6.500E-02  2.963E+02  2.963E+02
  2.000E-02  2.493E-01  1.016E+05 -2.584E-11  6.500E-02  2.964E+02  2.964E+02
  2.000E-02  2.557E-01  1.016E+05  3.458E-11  6.500E-02  2.964E+02  2.964E+02
  2.000E-02  2.620E-01  1.016E+05  7.297E-11  6.500E-02  2.963E+02  2.963E+02
  2.000E-02  2.683E-01  1.016E+05  7.187E-11  6.500E-02  2.963E+02  2.963E+02
  2.000E-02  2.746E-01  1.016E+05  3.756E-11  6.500E-02  2.962E+02  2.962E+02
  2.000E-02  2.809E-01  1.016E+05 -8.652E-13  6.500E-02  2.960E+02  2.960E+02
  2.000E-02  2.872E-01  1.016E+05 -2.672E-11  6.500E-02  2.959E+02  2.959E+02
  2.000E-02  2.935E-01  1.016E+05 -3.391E-11  6.501E-02  2.957E+02  2.957E+02
  2.000E-02  2.998E-01  1.016E+05 -4.133E-11  6.500E-02  2.955E+02  2.956E+02
  2.000E-02  3.062E-01  1.016E+05 -4.865E-11  6.500E-02  2.954E+02  2.954E+02
  2.000E-02  3.125E-01  1.015E+05 -3.200E-11  6.500E-02  2.952E+02  2.952E+02
  2.000E-02  3.188E-01  1.015E+05 -9.690E-12  6.500E-02  2.950E+02  2.950E+02
  2.000E-02  3.251E-01  1.015E+05  1.453E-11  6.500E-02  2.948E+02  2.948E+02
  2.000E-02  3.314E-01  1.015E+05  2.771E-11  6.500E-02  2.946E+02  2.946E+02
  2.000E-02  3.377E-01  1.015E+05  3.897E-11  6.500E-02  2.945E+02  2.945E+02
  2.000E-02  3.440E-01  1.015E+05  2.907E-11  6.500E-02  2.943E+02  2.943E+02
  2.000E-02  3.503E-01  1.015E+05  4.812E-12  6.500E-02  2.942E+02  2.942E+02
  2.000E-02  3.567E-01  1.015E+05 -1.535E-11  6.500E-02  2.940E+02  2.940E+02
  2.000E-02  3.630E-01  1.015E+05 -2.031E-11  6.501E-02  2.939E+02  2.939E+02
  2.000E-02  3.693E-01  1.015E+05 -1.876E-11  6.500E-02  2.938E+02  2.938E+02
  2.000E-02  3.756E-01  1.015E+05 -1.718E-11  6.500E-02  2.937E+02  2.937E+02
  2.000E-02  3.819E-01  1.015E+05 -7.417E-12  6.500E-02  2.937E+02  2.937E+02
  2.000E-02  3.882E-01  1.015E+05 -8.940E-12  6.500E-02  2.936E+02  2.936E+02
  2.000E-02  3.945E-01  1.015E+05 -8.157E-12  6.500E-02  2.935E+02  2.935E+02
  2.000E-02  4.008E-01  1.014E+05  3.778E-12  6.500E-02  2.935E+02  2.935E+02
  2.000E-02  4.072E-01  1.014E+05  3.997E-11  6.500E-02  2.934E+02  2.934E+02
  2.000E-02  4.135E-01  1.014E+05  6.170E-11  6.500E-02  2.934E+02  2.934E+02
  2.000E-02  4.198E-01  1.014E+05  4.956E-11  6.500E-02  2.934E+02  2.934E+02
  2.000E-02  4.261E-01  1.014E+05  1.244E-11  6.500E-02  2.934E+02  2.934E+02
  2.000E-02  4.324E-01  1.014E+05 -3.770E-11  6.501E-02  2.933E+02  2.933E+02
  2.000E-02  4.387E-01  1.014E+05 -6.339E-11  6.500E-02  2.933E+02  2.933E+02
  2.000E-02  4.450E-01  1.014E+05 -4.318E-11  6.500E-02  2.933E+02  2.933E+02
  2.000E-02  4.513E-01  1.014E+05  1.117E-11  6.500E-02  2.933E+02  2.933E+02
  2.000E-02  4.577E-01  1.014E+05  5.680E-11  6.500E-02  2.933E+02  2.933E+02
  2.000E-02  4.640E-01  1.014E+05  6.735E-11  6.500E-02  2.933E+02  2.933E+02
  2.000E-02  4.703E-01  1.014E+05  3.624E-11  6.500E-02  2.932E+02  2.932E+02
  2.000E-02  4.766E-01  1.014E+05 -1.443E-11  6.500E-02  2.932E+02  2.932E+02
  2.000E-02  4.829E-01  1.014E+05 -6.648E-11  6.500E-02  2.932E+02  2.932E+02
  2.000E-02  4.892E-01  1.013E+05 -9.417E-11  6.500E-02  2.932E+02  2.932E+02
  2.000E-02  4.955E-01  1.013E+05 -1.158E-10  6.500E-02  2.932E+02  2.932E+02
  2.000E-02  5.018E-01  1.013E+05 -1.205E-10  6.500E-02  2.932E+02  2.932E+02
  2.000E-02  5.050E-01  1.013E+05 -1.205E-10  6.500E-02  2.932E+02  2.932E+02
  2.800E-02  0.000E+00  1.019E+05  4.110E-07  6.500E-02  2.938E+02  2.938E+02
  2.800E-02  3.156E-03  1.019E+05  4.110E-07  6.498E-02  2.938E+02  2.938E+02
  2.800E-02  9.469E-03  1.019E+05  3.558E-07  6.500E-02  2.938E+02  2.938E+02
  2.800E-02  1.578E-02  1.019E+05  3.477E-07  6.500E-02  2.938E+02  2.938E+02
  2.800E-02  2.209E-02  1.019E+05  3.357E-07  6.500E-02  2.938E+02  2.938E+02
  2.800E-02  2.841E-02  1.019E+05  9.433E-07  6.501E-02  2.938E+02  2.938E+02
  2.800E-02  3.472E-02  1.019E+05  9.450E-07  6.500E-02  2.938E+02  2.938E+02
  2.800E-02  4.103E-02  1.019E+05  8.753E-07  6.500E-02  2.938E+02  2.938E+02
  2.800E-02  4.734E-02  1.019E+05  1.945E-07  6.500E-02  2.938E+02  2.938E+02
  2.800E-02  5.366E-02  1.019E+05  1.262E-07  6.500E-02  2.938E+02  2.938E+02
  2.800E-02  5.997E-02  1.018E+05  5.405E-08  6.500E-02  2.938E+02  2.938E+02
  2.800E-02  6.628E-02  1.018E+05  3.242E-08  6.500E-02  2.938E+02  2.938E+02
  2.800E-02  7.259E-02  1.018E+05  2.053E-08  6.500E-02  2.938E+02  2.938E+02
  2.800E-02  7.891E-02  1.018E+05  1.460E-08  6.500E-02  2.938E+02  2.938E+02
  2.800E-02  8.522E-02  1.018E+05  1.096E-08  6.500E-02  2.938E+02  2.938E+02
  2.800E-02  9.153E-02  1.018E+05  8.446E-09  6.500E-02  2.938E+02  2.938E+02
  2.800E-02  9.784E-02  1.018E+05  6.561E-09  6.501E-02  2.938E+02  2.938E+02
  2.800E-02  1.042E-01  1.018E+05  5.144E-09  6.500E-02  2.938E+02  2.938E+02
  2.800E-02  1.105E-01  1.018E+05  4.077E-09  6.500E-02  2.938E+02  2.938E+02
  2.800E-02  1.168E-01  1.018E+05  3.227E-09  6.500E-02  2.938E+02  2.938E+02
  2.800E-02  1.231E-01  1.018E+05  2.564E-09  6.500E-02  2.939E+02  2.939E+02
  2.800E-02  1.294E-01  1.018E+05  2.014E-09  6.500E-02  2.939E+02  2.939E+02
  2.800E-02  1.357E-01  1.018E+05  1.523E-09  6.500E-02  2.939E+02  2.939E+02
  2.800E-02  1.420E-01  1.017E+05  1.181E-09  6.500E-02  2.940E+02  2.940E+02
  2.800E-02  1.483E-01  1.017E+05  9.337E-10  6.500E-02  2.941E+02  2.940E+02
  2.800E-02  1.547E-01  1.017E+05  7.215E-10  6.500E-02  2.941E+02  2.941E+02
  2.800E-02  1.610E-01  1.017E+05  5.535E-10  6.500E-02  2.942E+02  2.942E+02
  2.800E-02  1.673E-01  1.017E+05  4.414E-10  6.501E-02  2.944E+02  2.944E+02
  2.800E-02  1.736E-01  1.017E+05  3.777E-10  6.500E-02  2.945E+02  2.945E+02
  2.800E-02  1.799E-01  1.017E+05  3.346E-10  6.500E-02  2.947E+02  2.947E+02
  2.800E-02  1.862E-01  1.017E+05  2.943E-10  6.500E-02  2.949E+02  2.948E+02
  2.800E-02  1.925E-01  1.017E+05  2.340E-10  6.500E-02  2.950E+02  2.950E+02
  2.800E-02  1.988E-01  1.017E+05  1.705E-10  6.500E-02  2.952E+02  2.952E+02
  2.800E-02  2.052E-01  1.017E+05  1.089E-10  6.500E-02  2.954E+02  2.954E+02
  2.800E-02  2.115E-01  1.017E+05  6.879E-11  6.500E-02  2.956E+02  2.956E+02
  2.800E-02  2.178E-01  1.017E+05  3.774E-11  6.500E-02  2.958E+02  2.958E+02
  2.800E-02  2.241E-01  1.017E+05  2.129E-11  6.500E-02  2.960E+02  2.960E+02
  2.800E-02  2.304E-01  1.016E+05  8.271E-12  6.500E-02  2.961E+02  2.961E+02
  2.800E-02  2.367E-01  1.016E+05  2.843E-12  6.501E-02  2.962E+02  2.962E+02
  2.800E-02  2.430E-01  1.016E+05  7.037E-12  6.500E-02  2.963E+02  2.963E+02
  2.800E-02  2.493E-01  1.016E+05  1.898E-11  6.500E-02  2.964E+02  2.964E+02
  2.800E-02  2.557E-01  1.016E+05  3.474E-11  6.500E-02  2.964E+02  2.964E+02
  2.800E-02  2.620E-01  1.016E+05  3.120E-11  6.500E-02  2.963E+02  2.963E+02
  2.800E-02  2.683E-01  1.016E+05  1.543E-11  6.500E-02  2.963E+02  2.963E+02
  2.800E-02  2.746E-01  1.016E+05 -7.565E-12  6.500E-02  2.962E+02  2.962E+02
  2.800E-02  2.809E-01  1.016E+05 -1.517E-11  6.500E-02  2.960E+02  2.960E+02
  2.800E-02  2.872E-01  1.016E+05 -1.694E-11  6.500E-02  2.959E+02  2.959E+02
  2.800E-02  2.935E-01  1.016E+05 -1.421E-11  6.501E-02  2.957E+02  2.957E+02
  2.800E-02  2.998E-01  1.016E+05 -1.337E-11  6.500E-02  2.955E+02  2.956E+02
  2.800E-02  3.062E-01  1.016E+05 -1.643E-11  6.500E-02  2.954E+02  2.954E+02
  2.800E-02  3.125E-01  1.015E+05 -9.100E-12  6.500E-02  2.952E+02  2.952E+02
  2.800E-02  3.188E-01  1.015E+05 -2.907E-12  6.500E-02  2.950E+02  2.950E+02
  2.800E-02  3.251E-01  1.015E+05  6.793E-12  6.500E-02  2.948E+02  2.948E+02
  2.800E-02  3.314E-01  1.015E+05  4.042E-12  6.500E-02  2.946E+02  2.946E+02
  2.800E-02  3.377E-01  1.015E+05 -1.008E-13  6.500E-02  2.945E+02  2.945E+02