VARIABLES="XP","YP","P","U","V","TS","TF"
ZONE T="Zone 001"I=    82 J=    22 F=POINT
  0.000E+00  0.000E+00  4.298E-02  0.000E+00  0.000E+00  6.318E-01  6.616E-01
  0.000E+00  3.156E-03  4.298E-02  0.000E+00  0.000E+00  6.318E-01  6.616E-01
  0.000E+00  9.469E-03  4.227E-02  0.000E+00  0.000E+00  6.377E-01  6.617E-01
  0.000E+00  1.578E-02  4.173E-02  0.000E+00  0.000E+00  6.514E-01  6.620E-01
  0.000E+00  2.209E-02  4.123E-02  0.000E+00  0.000E+00  6.768E-01  6.627E-01
  0.000E+00  2.841E-02  4.070E-02  0.000E+00  0.000E+00  7.200E-01  6.639E-01
  0.000E+00  3.472E-02  4.015E-02  0.000E+00  0.000E+00  7.890E-01  6.661E-01
  0.000E+00  4.103E-02  3.961E-02  0.000E+00  0.000E+00  8.942E-01  6.698E-01
  0.000E+00  4.734E-02  3.906E-02  0.000E+00  0.000E+00  1.048E+00  6.755E-01
  0.000E+00  5.366E-02  3.851E-02  0.000E+00  0.000E+00  1.264E+00  6.840E-01
  0.000E+00  5.997E-02  3.796E-02  0.000E+00  0.000E+00  1.555E+00  6.964E-01
  0.000E+00  6.628E-02  3.741E-02  0.000E+00  0.000E+00  1.930E+00  7.135E-01
  0.000E+00  7.259E-02  3.686E-02  0.000E+00  0.000E+00  2.386E+00  7.364E-01
  0.000E+00  7.891E-02  3.631E-02  0.000E+00  0.000E+00  2.904E+00  7.656E-01
  0.000E+00  8.522E-02  3.576E-02  0.000E+00  0.000E+00  3.438E+00  8.012E-01
  0.000E+00  9.153E-02  3.521E-02  0.000E+00  0.000E+00  3.919E+00  8.420E-01
  0.000E+00  9.784E-02  3.467E-02  0.000E+00  0.000E+00  4.263E+00  8.862E-01
  0.000E+00  1.042E-01  3.412E-02  0.000E+00  0.000E+00  4.401E+00  9.310E-01
  0.000E+00  1.105E-01  3.357E-02  0.000E+00  0.000E+00  4.302E+00  9.733E-01
  0.000E+00  1.168E-01  3.302E-02  0.000E+00  0.000E+00  3.993E+00  1.011E+00
  0.000E+00  1.231E-01  3.248E-02  0.000E+00  0.000E+00  3.541E+00  1.041E+00
  0.000E+00  1.294E-01  3.193E-02  0.000E+00  0.000E+00  3.029E+00  1.065E+00
  0.000E+00  1.357E-01  3.138E-02  0.000E+00  0.000E+00  2.526E+00  1.082E+00
  0.000E+00  1.420E-01  3.084E-02  0.000E+00  0.000E+00  2.078E+00  1.093E+00
  0.000E+00  1.483E-01  3.029E-02  0.000E+00  0.000E+00  1.706E+00  1.100E+00
  0.000E+00  1.547E-01  2.975E-02  0.000E+00  0.000E+00  1.414E+00  1.103E+00
  0.000E+00  1.610E-01  2.921E-02  0.000E+00  0.000E+00  1.194E+00  1.103E+00
  0.000E+00  1.673E-01  2.866E-02  0.000E+00  0.000E+00  1.034E+00  1.102E+00
  0.000E+00  1.736E-01  2.812E-02  0.000E+00  0.000E+00  9.197E-01  1.099E+00
  0.000E+00  1.799E-01  2.758E-02  0.000E+00  0.000E+00  8.409E-01  1.095E+00
  0.000E+00  1.862E-01  2.704E-02  0.000E+00  0.000E+00  7.872E-01  1.091E+00
  0.000E+00  1.925E-01  2.649E-02  0.000E+00  0.000E+00  7.510E-01  1.087E+00
  0.000E+00  1.988E-01  2.595E-02  0.000E+00  0.000E+00  7.267E-01  1.082E+00
  0.000E+00  2.052E-01  2.541E-02  0.000E+00  0.000E+00  7.102E-01  1.078E+00
  0.000E+00  2.115E-01  2.487E-02  0.000E+00  0.000E+00  6.988E-01  1.073E+00
  0.000E+00  2.178E-01  2.433E-02  0.000E+00  0.000E+00  6.905E-01  1.068E+00
  0.000E+00  2.241E-01  2.379E-02  0.000E+00  0.000E+00  6.842E-01  1.064E+00
  0.000E+00  2.304E-01  2.325E-02  0.000E+00  0.000E+00  6.790E-01  1.059E+00
  0.000E+00  2.367E-01  2.271E-02  0.000E+00  0.000E+00  6.744E-01  1.055E+00
  0.000E+00  2.430E-01  2.218E-02  0.000E+00  0.000E+00  6.703E-01  1.050E+00
  0.000E+00  2.493E-01  2.164E-02  0.000E+00  0.000E+00  6.664E-01  1.046E+00
  0.000E+00  2.557E-01  2.110E-02  0.000E+00  0.000E+00  6.626E-01  1.042E+00
  0.000E+00  2.620E-01  2.056E-02  0.000E+00  0.000E+00  6.588E-01  1.037E+00
  0.000E+00  2.683E-01  2.003E-02  0.000E+00  0.000E+00  6.551E-01  1.033E+00
  0.000E+00  2.746E-01  1.949E-02  0.000E+00  0.000E+00  6.514E-01  1.029E+00
  0.000E+00  2.809E-01  1.895E-02  0.000E+00  0.000E+00  6.477E-01  1.025E+00
  0.000E+00  2.872E-01  1.842E-02  0.000E+00  0.000E+00  6.441E-01  1.020E+00
  0.000E+00  2.935E-01  1.788E-02  0.000E+00  0.000E+00  6.404E-01  1.016E+00
  0.000E+00  2.998E-01  1.734E-02  0.000E+00  0.000E+00  6.367E-01  1.012E+00
  0.000E+00  3.062E-01  1.681E-02  0.000E+00  0.000E+00  6.331E-01  1.008E+00
  0.000E+00  3.125E-01  1.627E-02  0.000E+00  0.000E+00  6.294E-01  1.004E+00
  0.000E+00  3.188E-01  1.574E-02  0.000E+00  0.000E+00  6.258E-01  9.997E-01
  0.000E+00  3.251E-01  1.520E-02  0.000E+00  0.000E+00  6.222E-01  9.956E-01
  0.000E+00  3.314E-01  1.467E-02  0.000E+00  0.000E+00  6.185E-01  9.915E-01
  0.000E+00  3.377E-01  1.413E-02  0.000E+00  0.000E+00  6.149E-01  9.874E-01
  0.000E+00  3.440E-01  1.360E-02  0.000E+00  0.000E+00  6.113E-01  9.834E-01
  0.000E+00  3.503E-01  1.306E-02  0.000E+00  0.000E+00  6.078E-01  9.793E-01
  0.000E+00  3.567E-01  1.253E-02  0.000E+00  0.000E+00  6.042E-01  9.753E-01
  0.000E+00  3.630E-01  1.200E-02  0.000E+00  0.000E+00  6.006E-01  9.713E-01
  0.000E+00  3.693E-01  1.146E-02  0.000E+00  0.000E+00  5.971E-01  9.673E-01
  0.000E+00  3.756E-01  1.093E-02  0.000E+00  0.000E+00  5.936E-01  9.633E-01
  0.000E+00  3.819E-01  1.039E-02  0.000E+00  0.000E+00  5.901E-01  9.593E-01
  0.000E+00  3.882E-01  9.860E-03  0.000E+00  0.000E+00  5.866E-01  9.554E-01
  0.000E+00  3.945E-01  9.327E-03  0.000E+00  0.000E+00  5.832E-01  9.514E-01
  0.000E+00  4.008E-01  8.793E-03  0.000E+00  0.000E+00  5.797E-01  9.475E-01
  0.000E+00  4.072E-01  8.260E-03  0.000E+00  0.000E+00  5.763E-01  9.435E-01
  0.000E+00  4.135E-01  7.726E-03  0.000E+00  0.000E+00  5.730E-01  9.396E-01
  0.000E+00  4.198E-01  7.193E-03  0.000E+00  0.000E+00  5.696E-01  9.357E-01
  0.000E+00  4.261E-01  6.659E-03  0.000E+00  0.000E+00  5.663E-01  9.318E-01
  0.000E+00  4.324E-01  6.126E-03  0.000E+00  0.000E+00  5.630E-01  9.279E-01
  0.000E+00  4.387E-01  5.593E-03  0.000E+00  0.000E+00  5.598E-01  9.240E-01
  0.000E+00  4.450E-01  5.060E-03  0.000E+00  0.000E+00  5.566E-01  9.201E-01
  0.000E+00  4.513E-01  4.527E-03  0.000E+00  0.000E+00  5.535E-01  9.163E-01
  0.000E+00  4.577E-01  3.994E-03  0.000E+00  0.000E+00  5.505E-01  9.125E-01
  0.000E+00  4.640E-01  3.461E-03  0.000E+00  0.000E+00  5.476E-01  9.086E-01
  0.000E+00  4.703E-01  2.928E-03  0.000E+00  0.000E+00  5.449E-01  9.048E-01
  0.000E+00  4.766E-01  2.395E-03  0.000E+00  0.000E+00  5.425E-01  9.010E-01
  0.000E+00  4.829E-01  1.862E-03  0.000E+00  0.000E+00  5.404E-01  8.973E-01
  0.000E+00  4.892E-01  1.329E-03  0.000E+00  0.000E+00  5.387E-01  8.935E-01
  0.000E+00  4.955E-01  7.966E-04  0.000E+00  0.000E+00  5.375E-01  8.899E-01
  0.000E+00  5.018E-01  2.637E-04  0.000E+00  0.000E+00  5.368E-01  8.869E-01
  0.000E+00  5.050E-01  2.637E-04  0.000E+00  0.000E+00  5.368E-01  8.869E-01
  4.000E-03  0.000E+00  4.330E-02  1.341E-03  6.500E-02  6.318E-01  6.616E-01
  4.000E-03  3.156E-03  4.297E-02  1.341E-03  6.430E-02  6.318E-01  6.616E-01
  4.000E-03  9.469E-03  4.230E-02  1.200E-03  6.350E-02  6.377E-01  6.617E-01
  4.000E-03  1.578E-02  4.176E-02  1.083E-03  6.260E-02  6.514E-01  6.620E-01
  4.000E-03  2.209E-02  4.124E-02  1.012E-03  6.172E-02  6.768E-01  6.627E-01
  4.000E-03  2.841E-02  4.071E-02  9.617E-04  6.090E-02  7.200E-01  6.639E-01
  4.000E-03  3.472E-02  4.016E-02  9.149E-04  6.012E-02  7.890E-01  6.661E-01
  4.000E-03  4.103E-02  3.961E-02  8.700E-04  5.937E-02  8.942E-01  6.698E-01
  4.000E-03  4.734E-02  3.906E-02  8.277E-04  5.865E-02  1.048E+00  6.755E-01
  4.000E-03  5.366E-02  3.851E-02  7.878E-04  5.795E-02  1.264E+00  6.840E-01
  4.000E-03  5.997E-02  3.796E-02  7.499E-04  5.728E-02  1.555E+00  6.964E-01
  4.000E-03  6.628E-02  3.741E-02  7.135E-04  5.664E-02  1.930E+00  7.135E-01
  4.000E-03  7.259E-02  3.686E-02  6.785E-04  5.602E-02  2.386E+00  7.364E-01
  4.000E-03  7.891E-02  3.632E-02  6.450E-04  5.543E-02  2.904E+00  7.656E-01
  4.000E-03  8.522E-02  3.577E-02  6.127E-04  5.486E-02  3.438E+00  8.012E-01
  4.000E-03  9.153E-02  3.522E-02  5.817E-04  5.431E-02  3.919E+00  8.420E-01
  4.000E-03  9.784E-02  3.467E-02  5.519E-04  5.378E-02  4.263E+00  8.862E-01
  4.000E-03  1.042E-01  3.412E-02  5.233E-04  5.328E-02  4.401E+00  9.310E-01
  4.000E-03  1.105E-01  3.357E-02  4.958E-04  5.280E-02  4.302E+00  9.733E-01
  4.000E-03  1.168E-01  3.303E-02  4.694E-04  5.234E-02  3.993E+00  1.011E+00
  4.000E-03  1.231E-01  3.248E-02  4.440E-04  5.189E-02  3.541E+00  1.041E+00
  4.000E-03  1.294E-01  3.193E-02  4.198E-04  5.147E-02  3.029E+00  1.065E+00
  4.000E-03  1.357E-01  3.139E-02  3.965E-04  5.107E-02  2.526E+00  1.082E+00
  4.000E-03  1.420E-01  3.084E-02  3.742E-04  5.069E-02  2.078E+00  1.093E+00
  4.000E-03  1.483E-01  3.030E-02  3.529E-04  5.032E-02  1.706E+00  1.100E+00
  4.000E-03  1.547E-01  2.975E-02  3.325E-04  4.997E-02  1.414E+00  1.103E+00
  4.000E-03  1.610E-01  2.921E-02  3.131E-04  4.964E-02  1.194E+00  1.103E+00
  4.000E-03  1.673E-01  2.867E-02  2.945E-04  4.933E-02  1.034E+00  1.102E+00
  4.000E-03  1.736E-01  2.812E-02  2.768E-04  4.903E-02  9.197E-01  1.099E+00
  4.000E-03  1.799E-01  2.758E-02  2.600E-04  4.874E-02  8.409E-01  1.095E+00
  4.000E-03  1.862E-01  2.704E-02  2.440E-04  4.847E-02  7.872E-01  1.091E+00
  4.000E-03  1.925E-01  2.650E-02  2.287E-04  4.821E-02  7.510E-01  1.087E+00
  4.000E-03  1.988E-01  2.595E-02  2.143E-04  4.797E-02  7.267E-01  1.082E+00
  4.000E-03  2.052E-01  2.541E-02  2.006E-04  4.774E-02  7.102E-01  1.078E+00
  4.000E-03  2.115E-01  2.487E-02  1.876E-04  4.752E-02  6.988E-01  1.073E+00
  4.000E-03  2.178E-01  2.433E-02  1.753E-04  4.731E-02  6.905E-01  1.068E+00
  4.000E-03  2.241E-01  2.379E-02  1.637E-04  4.712E-02  6.842E-01  1.064E+00
  4.000E-03  2.304E-01  2.326E-02  1.528E-04  4.693E-02  6.790E-01  1.059E+00
  4.000E-03  2.367E-01  2.272E-02  1.425E-04  4.676E-02  6.744E-01  1.055E+00
  4.000E-03  2.430E-01  2.218E-02  1.327E-04  4.659E-02  6.703E-01  1.050E+00
  4.000E-03  2.493E-01  2.164E-02  1.236E-04  4.643E-02  6.664E-01  1.046E+00
  4.000E-03  2.557E-01  2.110E-02  1.150E-04  4.629E-02  6.626E-01  1.042E+00
  4.000E-03  2.620E-01  2.056E-02  1.069E-04  4.615E-02  6.588E-01  1.037E+00
  4.000E-03  2.683E-01  2.003E-02  9.933E-05  4.602E-02  6.551E-01  1.033E+00
  4.000E-03  2.746E-01  1.949E-02  9.222E-05  4.589E-02  6.514E-01  1.029E+00
  4.000E-03  2.809E-01  1.895E-02  8.556E-05  4.578E-02  6.477E-01  1.025E+00
  4.000E-03  2.872E-01  1.842E-02  7.933E-05  4.567E-02  6.441E-01  1.020E+00
  4.000E-03  2.935E-01  1.788E-02  7.350E-05  4.556E-02  6.404E-01  1.016E+00
  4.000E-03  2.998E-01  1.735E-02  6.806E-05  4.546E-02  6.367E-01  1.012E+00
  4.000E-03  3.062E-01  1.681E-02  6.298E-05  4.537E-02  6.331E-01  1.008E+00
  4.000E-03  3.125E-01  1.627E-02  5.824E-05  4.529E-02  6.294E-01  1.004E+00
  4.000E-03  3.188E-01  1.574E-02  5.382E-05  4.521E-02  6.258E-01  9.997E-01
  4.000E-03  3.251E-01  1.520E-02  4.971E-05  4.513E-02  6.222E-01  9.956E-01
  4.000E-03  3.314E-01  1.467E-02  4.587E-05  4.506E-02  6.185E-01  9.915E-01
  4.000E-03  3.377E-01  1.413E-02  4.231E-05  4.499E-02  6.149E-01  9.874E-01
  4.000E-03  3.440E-01  1.360E-02  3.900E-05  4.493E-02  6.113E-01  9.834E-01
  4.000E-03  3.503E-01  1.307E-02  3.592E-05  4.487E-02  6.078E-01  9.793E-01
  4.000E-03  3.567E-01  1.253E-02  3.306E-05  4.481E-02  6.042E-01  9.753E-01
  4.000E-03  3.630E-01  1.200E-02  3.041E-05  4.476E-02  6.006E-01  9.713E-01
  4.000E-03  3.693E-01  1.146E-02  2.795E-05  4.471E-02  5.971E-01  9.673E-01
  4.000E-03  3.756E-01  1.093E-02  2.567E-05  4.466E-02  5.936E-01  9.633E-01
  4.000E-03  3.819E-01  1.039E-02  2.355E-05  4.462E-02  5.901E-01  9.593E-01
  4.000E-03  3.882E-01  9.861E-03  2.160E-05  4.458E-02  5.866E-01  9.554E-01
  4.000E-03  3.945E-01  9.327E-03  1.979E-05  4.454E-02  5.832E-01  9.514E-01
  4.000E-03  4.008E-01  8.793E-03  1.812E-05  4.450E-02  5.797E-01  9.475E-01
  4.000E-03  4.072E-01  8.260E-03  1.657E-05  4.447E-02  5.763E-01  9.435E-01
  4.000E-03  4.135E-01  7.726E-03  1.514E-05  4.443E-02  5.730E-01  9.396E-01
  4.000E-03  4.198E-01  7.193E-03  1.383E-05  4.440E-02  5.696E-01  9.357E-01
  4.000E-03  4.261E-01  6.660E-03  1.261E-05  4.438E-02  5.663E-01  9.318E-01
  4.000E-03  4.324E-01  6.127E-03  1.149E-05  4.435E-02  5.630E-01  9.279E-01
  4.000E-03  4.387E-01  5.593E-03  1.046E-05  4.432E-02  5.598E-01  9.240E-01
  4.000E-03  4.450E-01  5.060E-03  9.505E-06  4.430E-02  5.566E-01  9.201E-01
  4.000E-03  4.513E-01  4.527E-03  8.628E-06  4.428E-02  5.535E-01  9.163E-01
  4.000E-03  4.577E-01  3.994E-03  7.818E-06  4.426E-02  5.505E-01  9.125E-01
  4.000E-03  4.640E-01  3.461E-03  7.069E-06  4.424E-02  5.476E-01  9.086E-01
  4.000E-03  4.703E-01  2.928E-03  6.372E-06  4.422E-02  5.449E-01  9.048E-01
  4.000E-03  4.766E-01  2.395E-03  5.717E-06  4.420E-02  5.425E-01  9.010E-01
  4.000E-03  4.829E-01  1.862E-03  5.091E-06  4.419E-02  5.404E-01  8.973E-01
  4.000E-03  4.892E-01  1.330E-03  4.473E-06  4.417E-02  5.387E-01  8.935E-01
  4.000E-03  4.955E-01  7.968E-04  3.824E-06  4.416E-02  5.375E-01  8.899E-01
  4.000E-03  5.018E-01  2.639E-04  3.120E-06  4.414E-02  5.368E-01  8.869E-01
  4.000E-03  5.050E-01  0.000E+00  3.120E-06  4.414E-02  5.368E-01  8.869E-01
  1.200E-02  0.000E+00  4.322E-02  1.300E-03  6.500E-02  6.389E-01  6.629E-01
  1.200E-02  3.156E-03  4.294E-02  1.300E-03  6.512E-02  6.389E-01  6.629E-01
  1.200E-02  9.469E-03  4.237E-02  1.215E-03  6.521E-02  6.450E-01  6.630E-01
  1.200E-02  1.578E-02  4.182E-02  1.141E-03  6.528E-02  6.592E-01  6.633E-01
  1.200E-02  2.209E-02  4.127E-02  1.096E-03  6.532E-02  6.852E-01  6.640E-01
  1.200E-02  2.841E-02  4.072E-02  1.064E-03  6.535E-02  7.290E-01  6.653E-01
  1.200E-02  3.472E-02  4.017E-02  1.033E-03  6.537E-02  7.986E-01  6.675E-01
  1.200E-02  4.103E-02  3.962E-02  1.002E-03  6.538E-02  9.042E-01  6.711E-01
  1.200E-02  4.734E-02  3.907E-02  9.723E-04  6.539E-02  1.058E+00  6.767E-01
  1.200E-02  5.366E-02  3.852E-02  9.431E-04  6.539E-02  1.274E+00  6.850E-01
  1.200E-02  5.997E-02  3.797E-02  9.145E-04  6.538E-02  1.565E+00  6.971E-01
  1.200E-02  6.628E-02  3.742E-02  8.861E-04  6.536E-02  1.939E+00  7.138E-01
  1.200E-02  7.259E-02  3.687E-02  8.579E-04  6.534E-02  2.394E+00  7.360E-01
  1.200E-02  7.891E-02  3.632E-02  8.300E-04  6.531E-02  2.910E+00  7.644E-01
  1.200E-02  8.522E-02  3.577E-02  8.024E-04  6.529E-02  3.443E+00  7.989E-01
  1.200E-02  9.153E-02  3.523E-02  7.750E-04  6.525E-02  3.923E+00  8.386E-01
  1.200E-02  9.784E-02  3.468E-02  7.480E-04  6.522E-02  4.266E+00  8.816E-01
  1.200E-02  1.042E-01  3.413E-02  7.213E-04  6.518E-02  4.403E+00  9.253E-01
  1.200E-02  1.105E-01  3.358E-02  6.950E-04  6.514E-02  4.304E+00  9.668E-01
  1.200E-02  1.168E-01  3.303E-02  6.692E-04  6.510E-02  3.995E+00  1.004E+00
  1.200E-02  1.231E-01  3.249E-02  6.437E-04  6.506E-02  3.545E+00  1.035E+00
  1.200E-02  1.294E-01  3.194E-02  6.188E-04  6.502E-02  3.034E+00  1.059E+00
  1.200E-02  1.357E-01  3.139E-02  5.943E-04  6.497E-02  2.533E+00  1.076E+00
  1.200E-02  1.420E-01  3.085E-02  5.704E-04  6.493E-02  2.086E+00  1.089E+00
  1.200E-02  1.483E-01  3.030E-02  5.470E-04  6.489E-02  1.716E+00  1.096E+00
  1.200E-02  1.547E-01  2.976E-02  5.242E-04  6.484E-02  1.425E+00  1.100E+00
  1.200E-02  1.610E-01  2.921E-02  5.020E-04  6.480E-02  1.206E+00  1.101E+00
  1.200E-02  1.673E-01  2.867E-02  4.804E-04  6.475E-02  1.046E+00  1.101E+00
  1.200E-02  1.736E-01  2.813E-02  4.594E-04  6.471E-02  9.324E-01  1.098E+00
  1.200E-02  1.799E-01  2.758E-02  4.390E-04  6.467E-02  8.539E-01  1.096E+00
  1.200E-02  1.862E-01  2.704E-02  4.193E-04  6.462E-02  8.005E-01  1.092E+00
  1.200E-02  1.925E-01  2.650E-02  4.002E-04  6.458E-02  7.645E-01  1.088E+00
  1.200E-02  1.988E-01  2.596E-02  3.817E-04  6.454E-02  7.403E-01  1.084E+00
  1.200E-02  2.052E-01  2.542E-02  3.639E-04  6.450E-02  7.240E-01  1.080E+00
  1.200E-02  2.115E-01  2.488E-02  3.467E-04  6.446E-02  7.126E-01  1.075E+00
  1.200E-02  2.178E-01  2.434E-02  3.301E-04  6.442E-02  7.043E-01  1.071E+00
  1.200E-02  2.241E-01  2.380E-02  3.142E-04  6.438E-02  6.980E-01  1.067E+00
  1.200E-02  2.304E-01  2.326E-02  2.989E-04  6.435E-02  6.929E-01  1.062E+00
  1.200E-02  2.367E-01  2.272E-02  2.842E-04  6.431E-02  6.883E-01  1.058E+00
  1.200E-02  2.430E-01  2.218E-02  2.701E-04  6.427E-02  6.842E-01  1.054E+00
  1.200E-02  2.493E-01  2.164E-02  2.567E-04  6.424E-02  6.803E-01  1.050E+00
  1.200E-02  2.557E-01  2.110E-02  2.437E-04  6.421E-02  6.765E-01  1.045E+00
  1.200E-02  2.620E-01  2.057E-02  2.314E-04  6.417E-02  6.728E-01  1.041E+00
  1.200E-02  2.683E-01  2.003E-02  2.196E-04  6.414E-02  6.690E-01  1.037E+00
  1.200E-02  2.746E-01  1.949E-02  2.083E-04  6.411E-02  6.653E-01  1.033E+00
  1.200E-02  2.809E-01  1.896E-02  1.976E-04  6.408E-02  6.616E-01  1.029E+00
  1.200E-02  2.872E-01  1.842E-02  1.873E-04  6.405E-02  6.580E-01  1.024E+00
  1.200E-02  2.935E-01  1.788E-02  1.776E-04  6.402E-02  6.543E-01  1.020E+00
  1.200E-02  2.998E-01  1.735E-02  1.683E-04  6.400E-02  6.506E-01  1.016E+00
  1.200E-02  3.062E-01  1.681E-02  1.594E-04  6.397E-02  6.469E-01  1.012E+00
  1.200E-02  3.125E-01  1.628E-02  1.510E-04  6.395E-02  6.433E-01  1.008E+00
  1.200E-02  3.188E-01  1.574E-02  1.430E-04  6.392E-02  6.396E-01  1.004E+00
  1.200E-02  3.251E-01  1.521E-02  1.354E-04  6.390E-02  6.359E-01  9.998E-01
  1.200E-02  3.314E-01  1.467E-02  1.282E-04  6.388E-02  6.323E-01  9.958E-01
  1.200E-02  3.377E-01  1.414E-02  1.214E-04  6.385E-02  6.287E-01  9.918E-01
  1.200E-02  3.440E-01  1.360E-02  1.149E-04  6.383E-02  6.250E-01  9.877E-01
  1.200E-02  3.503E-01  1.307E-02  1.087E-04  6.381E-02  6.214E-01  9.837E-01
  1.200E-02  3.567E-01  1.253E-02  1.029E-04  6.379E-02  6.178E-01  9.797E-01
  1.200E-02  3.630E-01  1.200E-02  9.736E-05  6.378E-02  6.142E-01  9.757E-01
  1.200E-02  3.693E-01  1.146E-02  9.212E-05  6.376E-02  6.107E-01  9.718E-01
  1.200E-02  3.756E-01  1.093E-02  8.716E-05  6.374E-02  6.071E-01  9.678E-01
  1.200E-02  3.819E-01  1.040E-02  8.246E-05  6.372E-02  6.036E-01  9.638E-01
  1.200E-02  3.882E-01  9.862E-03  7.802E-05  6.371E-02  6.001E-01  9.599E-01
  1.200E-02  3.945E-01  9.328E-03  7.381E-05  6.369E-02  5.966E-01  9.559E-01
  1.200E-02  4.008E-01  8.794E-03  6.983E-05  6.368E-02  5.931E-01  9.520E-01
  1.200E-02  4.072E-01  8.261E-03  6.607E-05  6.366E-02  5.896E-01  9.481E-01
  1.200E-02  4.135E-01  7.727E-03  6.251E-05  6.365E-02  5.862E-01  9.442E-01
  1.200E-02  4.198E-01  7.194E-03  5.914E-05  6.364E-02  5.828E-01  9.403E-01
  1.200E-02  4.261E-01  6.660E-03  5.596E-05  6.362E-02  5.795E-01  9.364E-01
  1.200E-02  4.324E-01  6.127E-03  5.295E-05  6.361E-02  5.761E-01  9.325E-01
  1.200E-02  4.387E-01  5.594E-03  5.011E-05  6.360E-02  5.729E-01  9.286E-01
  1.200E-02  4.450E-01  5.061E-03  4.742E-05  6.359E-02  5.696E-01  9.248E-01
  1.200E-02  4.513E-01  4.528E-03  4.488E-05  6.358E-02  5.665E-01  9.209E-01
  1.200E-02  4.577E-01  3.995E-03  4.247E-05  6.357E-02  5.634E-01  9.171E-01
  1.200E-02  4.640E-01  3.462E-03  4.019E-05  6.356E-02  5.605E-01  9.133E-01
  1.200E-02  4.703E-01  2.929E-03  3.803E-05  6.355E-02  5.577E-01  9.095E-01
  1.200E-02  4.766E-01  2.396E-03  3.597E-05  6.354E-02  5.552E-01  9.057E-01
  1.200E-02  4.829E-01  1.863E-03  3.399E-05  6.353E-02  5.531E-01  9.019E-01
  1.200E-02  4.892E-01  1.330E-03  3.206E-05  6.352E-02  5.514E-01  8.982E-01
  1.200E-02  4.955E-01  7.971E-04  3.013E-05  6.351E-02  5.501E-01  8.946E-01
  1.200E-02  5.018E-01  2.643E-04  2.814E-05  6.350E-02  5.495E-01  8.915E-01
  1.200E-02  5.050E-01  0.000E+00  2.814E-05  6.350E-02  5.495E-01  8.915E-01
  2.000E-02  0.000E+00  4.321E-02  9.723E-04  6.500E-02  6.508E-01  6.653E-01
  2.000E-02  3.156E-03  4.294E-02  9.723E-04  6.510E-02  6.508E-01  6.653E-01
  2.000E-02  9.469E-03  4.240E-02  9.510E-04  6.521E-02  6.574E-01  6.654E-01
  2.000E-02  1.578E-02  4.184E-02  9.248E-04  6.533E-02  6.724E-01  6.657E-01
  2.000E-02  2.209E-02  4.128E-02  9.034E-04  6.543E-02  6.995E-01  6.664E-01
  2.000E-02  2.841E-02  4.073E-02  8.850E-04  6.553E-02  7.444E-01  6.677E-01
  2.000E-02  3.472E-02  4.018E-02  8.664E-04  6.562E-02  8.151E-01  6.700E-01
  2.000E-02  4.103E-02  3.963E-02  8.468E-04  6.571E-02  9.216E-01  6.736E-01
  2.000E-02  4.734E-02  3.908E-02  8.265E-04  6.580E-02  1.076E+00  6.792E-01
  2.000E-02  5.366E-02  3.853E-02  8.057E-04  6.588E-02  1.292E+00  6.876E-01
  2.000E-02  5.997E-02  3.798E-02  7.846E-04  6.596E-02  1.583E+00  6.995E-01
  2.000E-02  6.628E-02  3.743E-02  7.632E-04  6.603E-02  1.957E+00  7.161E-01
  2.000E-02  7.259E-02  3.688E-02  7.413E-04  6.610E-02  2.411E+00  7.381E-01
  2.000E-02  7.891E-02  3.633E-02  7.193E-04  6.617E-02  2.927E+00  7.661E-01
  2.000E-02  8.522E-02  3.579E-02  6.970E-04  6.624E-02  3.458E+00  8.002E-01
  2.000E-02  9.153E-02  3.524E-02  6.746E-04  6.630E-02  3.937E+00  8.393E-01
  2.000E-02  9.784E-02  3.469E-02  6.522E-04  6.636E-02  4.279E+00  8.816E-01
  2.000E-02  1.042E-01  3.414E-02  6.298E-04  6.641E-02  4.415E+00  9.247E-01
  2.000E-02  1.105E-01  3.359E-02  6.075E-04  6.646E-02  4.317E+00  9.656E-01
  2.000E-02  1.168E-01  3.305E-02  5.854E-04  6.651E-02  4.009E+00  1.002E+00
  2.000E-02  1.231E-01  3.250E-02  5.634E-04  6.656E-02  3.559E+00  1.033E+00
  2.000E-02  1.294E-01  3.195E-02  5.418E-04  6.660E-02  3.049E+00  1.057E+00
  2.000E-02  1.357E-01  3.141E-02  5.205E-04  6.665E-02  2.549E+00  1.074E+00
  2.000E-02  1.420E-01  3.086E-02  4.995E-04  6.669E-02  2.104E+00  1.087E+00
  2.000E-02  1.483E-01  3.032E-02  4.790E-04  6.672E-02  1.735E+00  1.095E+00
  2.000E-02  1.547E-01  2.977E-02  4.589E-04  6.676E-02  1.445E+00  1.099E+00
  2.000E-02  1.610E-01  2.923E-02  4.392E-04  6.679E-02  1.226E+00  1.101E+00
  2.000E-02  1.673E-01  2.868E-02  4.201E-04  6.682E-02  1.067E+00  1.100E+00
  2.000E-02  1.736E-01  2.814E-02  4.014E-04  6.685E-02  9.537E-01  1.099E+00
  2.000E-02  1.799E-01  2.760E-02  3.833E-04  6.688E-02  8.755E-01  1.096E+00
  2.000E-02  1.862E-01  2.705E-02  3.657E-04  6.690E-02  8.223E-01  1.093E+00
  2.000E-02  1.925E-01  2.651E-02  3.487E-04  6.693E-02  7.865E-01  1.090E+00
  2.000E-02  1.988E-01  2.597E-02  3.323E-04  6.695E-02  7.624E-01  1.086E+00
  2.000E-02  2.052E-01  2.543E-02  3.164E-04  6.697E-02  7.462E-01  1.082E+00
  2.000E-02  2.115E-01  2.489E-02  3.011E-04  6.699E-02  7.349E-01  1.078E+00
  2.000E-02  2.178E-01  2.435E-02  2.864E-04  6.700E-02  7.267E-01  1.074E+00
  2.000E-02  2.241E-01  2.381E-02  2.722E-04  6.702E-02  7.204E-01  1.070E+00
  2.000E-02  2.304E-01  2.327E-02  2.586E-04  6.703E-02  7.153E-01  1.066E+00
  2.000E-02  2.367E-01  2.273E-02  2.456E-04  6.705E-02  7.108E-01  1.062E+00
  2.000E-02  2.430E-01  2.219E-02  2.331E-04  6.706E-02  7.067E-01  1.058E+00
  2.000E-02  2.493E-01  2.165E-02  2.211E-04  6.707E-02  7.028E-01  1.054E+00
  2.000E-02  2.557E-01  2.111E-02  2.097E-04  6.708E-02  6.989E-01  1.050E+00
  2.000E-02  2.620E-01  2.058E-02  1.988E-04  6.709E-02  6.952E-01  1.045E+00
  2.000E-02  2.683E-01  2.004E-02  1.884E-04  6.710E-02  6.915E-01  1.041E+00
  2.000E-02  2.746E-01  1.950E-02  1.784E-04  6.711E-02  6.878E-01  1.037E+00
  2.000E-02  2.809E-01  1.896E-02  1.690E-04  6.712E-02  6.840E-01  1.033E+00
  2.000E-02  2.872E-01  1.843E-02  1.600E-04  6.712E-02  6.803E-01  1.029E+00
  2.000E-02  2.935E-01  1.789E-02  1.515E-04  6.713E-02  6.766E-01  1.025E+00
  2.000E-02  2.998E-01  1.735E-02  1.434E-04  6.714E-02  6.729E-01  1.021E+00
  2.000E-02  3.062E-01  1.682E-02  1.356E-04  6.714E-02  6.692E-01  1.017E+00
  2.000E-02  3.125E-01  1.628E-02  1.283E-04  6.715E-02  6.655E-01  1.013E+00
  2.000E-02  3.188E-01  1.575E-02  1.214E-04  6.715E-02  6.618E-01  1.009E+00
  2.000E-02  3.251E-01  1.521E-02  1.148E-04  6.715E-02  6.581E-01  1.005E+00
  2.000E-02  3.314E-01  1.468E-02  1.086E-04  6.716E-02  6.544E-01  1.001E+00
  2.000E-02  3.377E-01  1.414E-02  1.027E-04  6.716E-02  6.507E-01  9.971E-01
  2.000E-02  3.440E-01  1.361E-02  9.714E-05  6.716E-02  6.471E-01  9.931E-01
  2.000E-02  3.503E-01  1.307E-02  9.186E-05  6.716E-02  6.434E-01  9.892E-01
  2.000E-02  3.567E-01  1.254E-02  8.687E-05  6.716E-02  6.397E-01  9.852E-01
  2.000E-02  3.630E-01  1.200E-02  8.216E-05  6.717E-02  6.361E-01  9.813E-01
  2.000E-02  3.693E-01  1.147E-02  7.770E-05  6.717E-02  6.325E-01  9.773E-01
  2.000E-02  3.756E-01  1.093E-02  7.349E-05  6.717E-02  6.288E-01  9.734E-01
  2.000E-02  3.819E-01  1.040E-02  6.951E-05  6.717E-02  6.252E-01  9.695E-01
  2.000E-02  3.882E-01  9.865E-03  6.576E-05  6.717E-02  6.216E-01  9.655E-01
  2.000E-02  3.945E-01  9.331E-03  6.221E-05  6.717E-02  6.181E-01  9.616E-01
  2.000E-02  4.008E-01  8.797E-03  5.887E-05  6.717E-02  6.145E-01  9.577E-01
  2.000E-02  4.072E-01  8.263E-03  5.571E-05  6.717E-02  6.110E-01  9.538E-01
  2.000E-02  4.135E-01  7.730E-03  5.273E-05  6.717E-02  6.075E-01  9.499E-01
  2.000E-02  4.198E-01  7.196E-03  4.991E-05  6.717E-02  6.041E-01  9.461E-01
  2.000E-02  4.261E-01  6.663E-03  4.726E-05  6.717E-02  6.006E-01  9.422E-01
  2.000E-02  4.324E-01  6.129E-03  4.476E-05  6.717E-02  5.972E-01  9.383E-01
  2.000E-02  4.387E-01  5.596E-03  4.240E-05  6.717E-02  5.938E-01  9.345E-01
  2.000E-02  4.450E-01  5.063E-03  4.017E-05  6.717E-02  5.905E-01  9.306E-01
  2.000E-02  4.513E-01  4.529E-03  3.807E-05  6.717E-02  5.873E-01  9.268E-01
  2.000E-02  4.577E-01  3.996E-03  3.608E-05  6.717E-02  5.841E-01  9.230E-01
  2.000E-02  4.640E-01  3.463E-03  3.420E-05  6.716E-02  5.811E-01  9.191E-01
  2.000E-02  4.703E-01  2.930E-03  3.242E-05  6.716E-02  5.783E-01  9.153E-01
  2.000E-02  4.766E-01  2.397E-03  3.072E-05  6.716E-02  5.758E-01  9.116E-01
  2.000E-02  4.829E-01  1.864E-03  2.909E-05  6.716E-02  5.735E-01  9.078E-01
  2.000E-02  4.892E-01  1.331E-03  2.748E-05  6.716E-02  5.717E-01  9.041E-01
  2.000E-02  4.955E-01  7.985E-04  2.585E-05  6.716E-02  5.705E-01  9.005E-01
  2.000E-02  5.018E-01  2.658E-04  2.412E-05  6.716E-02  5.698E-01  8.974E-01
  2.000E-02  5.050E-01  0.000E+00  2.412E-05  6.716E-02  5.698E-01  8.974E-01
  2.800E-02  0.000E+00  4.319E-02  8.853E-04  6.500E-02  6.643E-01  6.684E-01
  2.800E-02  3.156E-03  4.293E-02  8.853E-04  6.508E-02  6.643E-01  6.684E-01
  2.800E-02  9.469E-03  4.239E-02  8.765E-04  6.518E-02  6.714E-01  6.686E-01
  2.800E-02  1.578E-02  4.184E-02  8.594E-04  6.529E-02  6.874E-01  6.689E-01
  2.800E-02  2.209E-02  4.129E-02  8.392E-04  6.540E-02  7.158E-01  6.696E-01
  2.800E-02  2.841E-02  4.073E-02  8.190E-04  6.550E-02  7.622E-01  6.710E-01
  2.800E-02  3.472E-02  4.019E-02  7.989E-04  6.560E-02  8.343E-01  6.732E-01
  2.800E-02  4.103E-02  3.964E-02  7.787E-04  6.569E-02  9.420E-01  6.769E-01
  2.800E-02  4.734E-02  3.909E-02  7.582E-04  6.578E-02  1.098E+00  6.826E-01
  2.800E-02  5.366E-02  3.854E-02  7.376E-04  6.587E-02  1.314E+00  6.910E-01
  2.800E-02  5.997E-02  3.799E-02  7.171E-04  6.596E-02  1.605E+00  7.030E-01
  2.800E-02  6.628E-02  3.744E-02  6.966E-04  6.604E-02  1.979E+00  7.196E-01
  2.800E-02  7.259E-02  3.689E-02  6.761E-04  6.612E-02  2.433E+00  7.416E-01
  2.800E-02  7.891E-02  3.634E-02  6.557E-04  6.620E-02  2.948E+00  7.695E-01
  2.800E-02  8.522E-02  3.579E-02  6.353E-04  6.627E-02  3.479E+00  8.034E-01
  2.800E-02  9.153E-02  3.525E-02  6.151E-04  6.635E-02  3.957E+00  8.423E-01
  2.800E-02  9.784E-02  3.470E-02  5.950E-04  6.642E-02  4.299E+00  8.844E-01
  2.800E-02  1.042E-01  3.415E-02  5.751E-04  6.648E-02  4.435E+00  9.271E-01
  2.800E-02  1.105E-01  3.360E-02  5.554E-04  6.655E-02  4.336E+00  9.678E-01
  2.800E-02  1.168E-01  3.305E-02  5.360E-04  6.661E-02  4.028E+00  1.004E+00
  2.800E-02  1.231E-01  3.251E-02  5.168E-04  6.667E-02  3.579E+00  1.034E+00
  2.800E-02  1.294E-01  3.196E-02  4.980E-04  6.673E-02  3.070E+00  1.058E+00
  2.800E-02  1.357E-01  3.142E-02  4.795E-04  6.678E-02  2.571E+00  1.076E+00
  2.800E-02  1.420E-01  3.087E-02  4.613E-04  6.684E-02  2.126E+00  1.088E+00
  2.800E-02  1.483E-01  3.032E-02  4.434E-04  6.689E-02  1.758E+00  1.096E+00
  2.800E-02  1.547E-01  2.978E-02  4.260E-04  6.694E-02  1.468E+00  1.100E+00
  2.800E-02  1.610E-01  2.923E-02  4.090E-04  6.698E-02  1.250E+00  1.102E+00
  2.800E-02  1.673E-01  2.869E-02  3.924E-04  6.703E-02  1.091E+00  1.102E+00
  2.800E-02  1.736E-01  2.815E-02  3.762E-04  6.707E-02  9.785E-01  1.101E+00
  2.800E-02  1.799E-01  2.760E-02  3.605E-04  6.711E-02  9.005E-01  1.099E+00
  2.800E-02  1.862E-01  2.706E-02  3.452E-04  6.715E-02  8.475E-01  1.096E+00
  2.800E-02  1.925E-01  2.652E-02  3.304E-04  6.719E-02  8.118E-01  1.093E+00
  2.800E-02  1.988E-01  2.598E-02  3.160E-04  6.722E-02  7.879E-01  1.089E+00
  2.800E-02  2.052E-01  2.544E-02  3.021E-04  6.725E-02  7.717E-01  1.085E+00
  2.800E-02  2.115E-01  2.489E-02  2.887E-04  6.728E-02  7.605E-01  1.082E+00
  2.800E-02  2.178E-01  2.435E-02  2.757E-04  6.731E-02  7.523E-01  1.078E+00
  2.800E-02  2.241E-01  2.381E-02  2.632E-04  6.734E-02  7.461E-01  1.074E+00
  2.800E-02  2.304E-01  2.327E-02  2.512E-04  6.737E-02  7.410E-01  1.070E+00
  2.800E-02  2.367E-01  2.273E-02  2.396E-04  6.739E-02  7.365E-01  1.066E+00
  2.800E-02  2.430E-01  2.219E-02  2.285E-04  6.742E-02  7.324E-01  1.062E+00
  2.800E-02  2.493E-01  2.166E-02  2.178E-04  6.744E-02  7.285E-01  1.058E+00
  2.800E-02  2.557E-01  2.112E-02  2.075E-04  6.746E-02  7.247E-01  1.054E+00
  2.800E-02  2.620E-01  2.058E-02  1.977E-04  6.748E-02  7.209E-01  1.050E+00
  2.800E-02  2.683E-01  2.004E-02  1.883E-04  6.750E-02  7.172E-01  1.046E+00
  2.800E-02  2.746E-01  1.950E-02  1.793E-04  6.752E-02  7.135E-01  1.042E+00
  2.800E-02  2.809E-01  1.897E-02  1.706E-04  6.754E-02  7.098E-01  1.038E+00
  2.800E-02  2.872E-01  1.843E-02  1.624E-04  6.755E-02  7.060E-01  1.035E+00
  2.800E-02  2.935E-01  1.789E-02  1.545E-04  6.757E-02  7.023E-01  1.031E+00
  2.800E-02  2.998E-01  1.736E-02  1.470E-04  6.758E-02  6.985E-01  1.027E+00
  2.800E-02  3.062E-01  1.682E-02  1.399E-04  6.760E-02  6.948E-01  1.023E+00
  2.800E-02  3.125E-01  1.628E-02  1.330E-04  6.761E-02  6.911E-01  1.019E+00
  2.800E-02  3.188E-01  1.575E-02  1.265E-04  6.762E-02  6.873E-01  1.015E+00
  2.800E-02  3.251E-01  1.521E-02  1.203E-04  6.763E-02  6.836E-01  1.011E+00
  2.800E-02  3.314E-01  1.468E-02  1.144E-04  6.765E-02  6.798E-01  1.007E+00
  2.800E-02  3.377E-01  1.414E-02  1.088E-04  6.766E-02  6.761E-01  1.003E+00