VARIABLES="XP","YP","P","U","V","TS","TF"
ZONE T="Zone 001"I=    62 J=    22 F=POINT
  0.000E+00  0.000E+00 -1.612E-06  0.000E+00  0.000E+00  2.930E+02  2.933E+02
  0.000E+00  4.208E-03 -1.612E-06  0.000E+00  0.000E+00  2.930E+02  2.933E+02
  0.000E+00  1.262E-02 -1.620E-06  0.000E+00  0.000E+00  2.930E+02  2.938E+02
  0.000E+00  2.104E-02 -1.623E-06  0.000E+00  0.000E+00  2.930E+02  2.946E+02
  0.000E+00  2.946E-02 -1.625E-06  0.000E+00  0.000E+00  2.930E+02  2.956E+02
  0.000E+00  3.787E-02 -1.626E-06  0.000E+00  0.000E+00  2.930E+02  2.970E+02
  0.000E+00  4.629E-02 -1.627E-06  0.000E+00  0.000E+00  2.930E+02  2.989E+02
  0.000E+00  5.471E-02 -1.628E-06  0.000E+00  0.000E+00  2.930E+02  3.014E+02
  0.000E+00  6.313E-02 -1.628E-06  0.000E+00  0.000E+00  2.930E+02  3.045E+02
  0.000E+00  7.154E-02 -1.628E-06  0.000E+00  0.000E+00  2.930E+02  3.080E+02
  0.000E+00  7.996E-02 -1.629E-06  0.000E+00  0.000E+00  2.930E+02  3.116E+02
  0.000E+00  8.838E-02 -1.629E-06  0.000E+00  0.000E+00  2.930E+02  3.147E+02
  0.000E+00  9.679E-02 -1.629E-06  0.000E+00  0.000E+00  2.930E+02  3.170E+02
  0.000E+00  1.052E-01 -1.629E-06  0.000E+00  0.000E+00  2.931E+02  3.178E+02
  0.000E+00  1.136E-01 -1.629E-06  0.000E+00  0.000E+00  2.930E+02  3.170E+02
  0.000E+00  1.220E-01 -1.629E-06  0.000E+00  0.000E+00  2.930E+02  3.147E+02
  0.000E+00  1.305E-01 -1.629E-06  0.000E+00  0.000E+00  2.930E+02  3.116E+02
  0.000E+00  1.389E-01 -1.629E-06  0.000E+00  0.000E+00  2.930E+02  3.080E+02
  0.000E+00  1.473E-01 -1.629E-06  0.000E+00  0.000E+00  2.930E+02  3.045E+02
  0.000E+00  1.557E-01 -1.629E-06  0.000E+00  0.000E+00  2.930E+02  3.014E+02
  0.000E+00  1.641E-01 -1.629E-06  0.000E+00  0.000E+00  2.930E+02  2.989E+02
  0.000E+00  1.725E-01 -1.629E-06  0.000E+00  0.000E+00  2.930E+02  2.970E+02
  0.000E+00  1.810E-01 -1.628E-06  0.000E+00  0.000E+00  2.930E+02  2.956E+02
  0.000E+00  1.894E-01 -1.628E-06  0.000E+00  0.000E+00  2.930E+02  2.947E+02
  0.000E+00  1.978E-01 -1.627E-06  0.000E+00  0.000E+00  2.930E+02  2.940E+02
  0.000E+00  2.062E-01 -1.627E-06  0.000E+00  0.000E+00  2.930E+02  2.936E+02
  0.000E+00  2.146E-01 -1.626E-06  0.000E+00  0.000E+00  2.930E+02  2.934E+02
  0.000E+00  2.230E-01 -1.625E-06  0.000E+00  0.000E+00  2.930E+02  2.932E+02
  0.000E+00  2.315E-01 -1.625E-06  0.000E+00  0.000E+00  2.930E+02  2.931E+02
  0.000E+00  2.399E-01 -1.623E-06  0.000E+00  0.000E+00  2.930E+02  2.931E+02
  0.000E+00  2.483E-01 -1.622E-06  0.000E+00  0.000E+00  2.930E+02  2.930E+02
  0.000E+00  2.567E-01 -1.620E-06  0.000E+00  0.000E+00  2.930E+02  2.930E+02
  0.000E+00  2.651E-01 -1.619E-06  0.000E+00  0.000E+00  2.930E+02  2.930E+02
  0.000E+00  2.735E-01 -1.616E-06  0.000E+00  0.000E+00  2.930E+02  2.930E+02
  0.000E+00  2.820E-01 -1.614E-06  0.000E+00  0.000E+00  2.930E+02  2.930E+02
  0.000E+00  2.904E-01 -1.610E-06  0.000E+00  0.000E+00  2.930E+02  2.930E+02
  0.000E+00  2.988E-01 -1.607E-06  0.000E+00  0.000E+00  2.930E+02  2.930E+02
  0.000E+00  3.072E-01 -1.602E-06  0.000E+00  0.000E+00  2.930E+02  2.930E+02
  0.000E+00  3.156E-01 -1.597E-06  0.000E+00  0.000E+00  2.930E+02  2.930E+02
  0.000E+00  3.240E-01 -1.591E-06  0.000E+00  0.000E+00  2.930E+02  2.930E+02
  0.000E+00  3.325E-01 -1.583E-06  0.000E+00  0.000E+00  2.930E+02  2.930E+02
  0.000E+00  3.409E-01 -1.574E-06  0.000E+00  0.000E+00  2.930E+02  2.930E+02
  0.000E+00  3.493E-01 -1.563E-06  0.000E+00  0.000E+00  2.930E+02  2.931E+02
  0.000E+00  3.577E-01 -1.551E-06  0.000E+00  0.000E+00  2.930E+02  2.932E+02
  0.000E+00  3.661E-01 -1.536E-06  0.000E+00  0.000E+00  2.930E+02  2.933E+02
  0.000E+00  3.745E-01 -1.518E-06  0.000E+00  0.000E+00  2.930E+02  2.935E+02
  0.000E+00  3.830E-01 -1.497E-06  0.000E+00  0.000E+00  2.930E+02  2.939E+02
  0.000E+00  3.914E-01 -1.472E-06  0.000E+00  0.000E+00  2.930E+02  2.945E+02
  0.000E+00  3.998E-01 -1.442E-06  0.000E+00  0.000E+00  2.930E+02  2.956E+02
  0.000E+00  4.082E-01 -1.406E-06  0.000E+00  0.000E+00  2.930E+02  2.972E+02
  0.000E+00  4.166E-01 -1.364E-06  0.000E+00  0.000E+00  2.930E+02  2.998E+02
  0.000E+00  4.250E-01 -1.313E-06  0.000E+00  0.000E+00  2.930E+02  3.037E+02
  0.000E+00  4.335E-01 -1.252E-06  0.000E+00  0.000E+00  2.930E+02  3.095E+02
  0.000E+00  4.419E-01 -1.178E-06  0.000E+00  0.000E+00  2.930E+02  3.177E+02
  0.000E+00  4.503E-01 -1.089E-06  0.000E+00  0.000E+00  2.930E+02  3.290E+02
  0.000E+00  4.587E-01 -9.787E-07  0.000E+00  0.000E+00  2.930E+02  3.441E+02
  0.000E+00  4.671E-01 -8.401E-07  0.000E+00  0.000E+00  2.930E+02  3.634E+02
  0.000E+00  4.755E-01 -6.609E-07  0.000E+00  0.000E+00  2.930E+02  3.872E+02
  0.000E+00  4.840E-01 -4.291E-07  0.000E+00  0.000E+00  2.930E+02  4.152E+02
  0.000E+00  4.924E-01 -1.583E-07  0.000E+00  0.000E+00  2.933E+02  4.468E+02
  0.000E+00  5.008E-01  4.843E-08  0.000E+00  0.000E+00  3.076E+02  4.808E+02
  0.000E+00  5.050E-01  4.843E-08  0.000E+00  0.000E+00  3.076E+02  4.808E+02
  4.000E-03  0.000E+00 -1.354E-06 -5.165E-07  0.000E+00  2.930E+02  2.930E+02
  4.000E-03  4.208E-03 -1.358E-06 -5.165E-07  8.361E-09  2.930E+02  2.933E+02
  4.000E-03  1.262E-02 -1.363E-06 -5.229E-07  4.599E-09  2.930E+02  2.938E+02
  4.000E-03  2.104E-02 -1.366E-06 -5.253E-07  2.519E-09  2.930E+02  2.946E+02
  4.000E-03  2.946E-02 -1.367E-06 -5.261E-07  1.562E-09  2.930E+02  2.956E+02
  4.000E-03  3.787E-02 -1.368E-06 -5.264E-07  1.092E-09  2.930E+02  2.970E+02
  4.000E-03  4.629E-02 -1.369E-06 -5.266E-07  8.167E-10  2.930E+02  2.989E+02
  4.000E-03  5.471E-02 -1.369E-06 -5.267E-07  6.321E-10  2.930E+02  3.014E+02
  4.000E-03  6.313E-02 -1.370E-06 -5.268E-07  4.971E-10  2.930E+02  3.045E+02
  4.000E-03  7.154E-02 -1.370E-06 -5.268E-07  3.925E-10  2.930E+02  3.080E+02
  4.000E-03  7.996E-02 -1.370E-06 -5.269E-07  3.077E-10  2.930E+02  3.116E+02
  4.000E-03  8.838E-02 -1.371E-06 -5.269E-07  2.364E-10  2.930E+02  3.147E+02
  4.000E-03  9.679E-02 -1.371E-06 -5.269E-07  1.743E-10  2.930E+02  3.170E+02
  4.000E-03  1.052E-01 -1.371E-06 -5.269E-07  1.187E-10  2.931E+02  3.178E+02
  4.000E-03  1.136E-01 -1.371E-06 -5.269E-07  6.713E-11  2.930E+02  3.170E+02
  4.000E-03  1.220E-01 -1.371E-06 -5.269E-07  1.773E-11  2.930E+02  3.147E+02
  4.000E-03  1.305E-01 -1.371E-06 -5.269E-07 -3.104E-11  2.930E+02  3.116E+02
  4.000E-03  1.389E-01 -1.371E-06 -5.269E-07 -8.075E-11  2.930E+02  3.080E+02
  4.000E-03  1.473E-01 -1.371E-06 -5.269E-07 -1.330E-10  2.930E+02  3.045E+02
  4.000E-03  1.557E-01 -1.371E-06 -5.268E-07 -1.894E-10  2.930E+02  3.014E+02
  4.000E-03  1.641E-01 -1.371E-06 -5.268E-07 -2.514E-10  2.930E+02  2.989E+02
  4.000E-03  1.725E-01 -1.370E-06 -5.268E-07 -3.211E-10  2.930E+02  2.970E+02
  4.000E-03  1.810E-01 -1.370E-06 -5.267E-07 -4.004E-10  2.930E+02  2.956E+02
  4.000E-03  1.894E-01 -1.370E-06 -5.267E-07 -4.915E-10  2.930E+02  2.947E+02
  4.000E-03  1.978E-01 -1.369E-06 -5.266E-07 -5.975E-10  2.930E+02  2.940E+02
  4.000E-03  2.062E-01 -1.369E-06 -5.265E-07 -7.213E-10  2.930E+02  2.936E+02
  4.000E-03  2.146E-01 -1.368E-06 -5.264E-07 -8.666E-10  2.930E+02  2.934E+02
  4.000E-03  2.230E-01 -1.367E-06 -5.263E-07 -1.038E-09  2.930E+02  2.932E+02
  4.000E-03  2.315E-01 -1.367E-06 -5.262E-07 -1.240E-09  2.930E+02  2.931E+02
  4.000E-03  2.399E-01 -1.365E-06 -5.260E-07 -1.479E-09  2.930E+02  2.931E+02
  4.000E-03  2.483E-01 -1.364E-06 -5.259E-07 -1.761E-09  2.930E+02  2.930E+02
  4.000E-03  2.567E-01 -1.363E-06 -5.256E-07 -2.096E-09  2.930E+02  2.930E+02
  4.000E-03  2.651E-01 -1.361E-06 -5.254E-07 -2.494E-09  2.930E+02  2.930E+02
  4.000E-03  2.735E-01 -1.359E-06 -5.251E-07 -2.965E-09  2.930E+02  2.930E+02
  4.000E-03  2.820E-01 -1.356E-06 -5.247E-07 -3.524E-09  2.930E+02  2.930E+02
  4.000E-03  2.904E-01 -1.353E-06 -5.243E-07 -4.188E-09  2.930E+02  2.930E+02
  4.000E-03  2.988E-01 -1.350E-06 -5.238E-07 -4.976E-09  2.930E+02  2.930E+02
  4.000E-03  3.072E-01 -1.346E-06 -5.232E-07 -5.912E-09  2.930E+02  2.930E+02
  4.000E-03  3.156E-01 -1.341E-06 -5.224E-07 -7.023E-09  2.930E+02  2.930E+02
  4.000E-03  3.240E-01 -1.335E-06 -5.216E-07 -8.342E-09  2.930E+02  2.930E+02
  4.000E-03  3.325E-01 -1.328E-06 -5.206E-07 -9.908E-09  2.930E+02  2.930E+02
  4.000E-03  3.409E-01 -1.319E-06 -5.194E-07 -1.177E-08  2.930E+02  2.930E+02
  4.000E-03  3.493E-01 -1.309E-06 -5.180E-07 -1.398E-08  2.930E+02  2.931E+02
  4.000E-03  3.577E-01 -1.298E-06 -5.163E-07 -1.660E-08  2.930E+02  2.932E+02
  4.000E-03  3.661E-01 -1.284E-06 -5.143E-07 -1.972E-08  2.930E+02  2.933E+02
  4.000E-03  3.745E-01 -1.267E-06 -5.119E-07 -2.343E-08  2.930E+02  2.935E+02
  4.000E-03  3.830E-01 -1.247E-06 -5.091E-07 -2.784E-08  2.930E+02  2.939E+02
  4.000E-03  3.914E-01 -1.224E-06 -5.057E-07 -3.310E-08  2.930E+02  2.945E+02
  4.000E-03  3.998E-01 -1.196E-06 -5.016E-07 -3.938E-08  2.930E+02  2.956E+02
  4.000E-03  4.082E-01 -1.162E-06 -4.967E-07 -4.689E-08  2.930E+02  2.972E+02
  4.000E-03  4.166E-01 -1.123E-06 -4.908E-07 -5.592E-08  2.930E+02  2.998E+02
  4.000E-03  4.250E-01 -1.075E-06 -4.836E-07 -6.685E-08  2.930E+02  3.037E+02
  4.000E-03  4.335E-01 -1.019E-06 -4.746E-07 -8.017E-08  2.930E+02  3.095E+02
  4.000E-03  4.419E-01 -9.508E-07 -4.632E-07 -9.659E-08  2.930E+02  3.177E+02
  4.000E-03  4.503E-01 -8.686E-07 -4.484E-07 -1.173E-07  2.930E+02  3.290E+02
  4.000E-03  4.587E-01 -7.683E-07 -4.285E-07 -1.449E-07  2.930E+02  3.441E+02
  4.000E-03  4.671E-01 -6.433E-07 -4.004E-07 -1.819E-07  2.930E+02  3.634E+02
  4.000E-03  4.755E-01 -4.851E-07 -3.567E-07 -2.251E-07  2.930E+02  3.872E+02
  4.000E-03  4.840E-01 -2.926E-07 -2.758E-07 -2.521E-07  2.930E+02  4.152E+02
  4.000E-03  4.924E-01 -9.176E-08 -1.331E-07 -2.093E-07  2.933E+02  4.468E+02
  4.000E-03  5.008E-01  3.480E-08  2.273E-08 -3.759E-08  3.076E+02  4.808E+02
  4.000E-03  5.050E-01  0.000E+00  0.000E+00 -3.759E-08  2.930E+02  2.930E+02
  1.200E-02  0.000E+00 -1.096E-06 -2.882E-07  0.000E+00  2.930E+02  2.930E+02
  1.200E-02  4.208E-03 -1.097E-06 -2.882E-07  2.421E-09  2.930E+02  2.933E+02
  1.200E-02  1.262E-02 -1.099E-06 -2.911E-07  1.658E-09  2.930E+02  2.938E+02
  1.200E-02  2.104E-02 -1.100E-06 -2.925E-07  1.449E-09  2.930E+02  2.946E+02
  1.200E-02  2.946E-02 -1.101E-06 -2.930E-07  1.189E-09  2.930E+02  2.956E+02
  1.200E-02  3.787E-02 -1.102E-06 -2.933E-07  9.357E-10  2.930E+02  2.970E+02
  1.200E-02  4.629E-02 -1.102E-06 -2.934E-07  7.359E-10  2.930E+02  2.989E+02
  1.200E-02  5.471E-02 -1.103E-06 -2.935E-07  5.850E-10  2.930E+02  3.014E+02
  1.200E-02  6.313E-02 -1.103E-06 -2.935E-07  4.682E-10  2.930E+02  3.045E+02
  1.200E-02  7.154E-02 -1.103E-06 -2.935E-07  3.742E-10  2.930E+02  3.080E+02
  1.200E-02  7.996E-02 -1.104E-06 -2.936E-07  2.961E-10  2.930E+02  3.116E+02
  1.200E-02  8.838E-02 -1.104E-06 -2.936E-07  2.293E-10  2.930E+02  3.148E+02
  1.200E-02  9.679E-02 -1.104E-06 -2.936E-07  1.707E-10  2.930E+02  3.170E+02
  1.200E-02  1.052E-01 -1.104E-06 -2.936E-07  1.178E-10  2.931E+02  3.178E+02
  1.200E-02  1.136E-01 -1.104E-06 -2.936E-07  6.857E-11  2.930E+02  3.170E+02
  1.200E-02  1.220E-01 -1.104E-06 -2.936E-07  2.146E-11  2.930E+02  3.148E+02
  1.200E-02  1.305E-01 -1.104E-06 -2.936E-07 -2.503E-11  2.930E+02  3.116E+02
  1.200E-02  1.389E-01 -1.104E-06 -2.936E-07 -7.240E-11  2.930E+02  3.080E+02
  1.200E-02  1.473E-01 -1.104E-06 -2.936E-07 -1.221E-10  2.930E+02  3.045E+02
  1.200E-02  1.557E-01 -1.104E-06 -2.936E-07 -1.756E-10  2.930E+02  3.015E+02
  1.200E-02  1.641E-01 -1.104E-06 -2.936E-07 -2.343E-10  2.930E+02  2.989E+02
  1.200E-02  1.725E-01 -1.104E-06 -2.935E-07 -3.001E-10  2.930E+02  2.970E+02
  1.200E-02  1.810E-01 -1.103E-06 -2.935E-07 -3.751E-10  2.930E+02  2.956E+02
  1.200E-02  1.894E-01 -1.103E-06 -2.935E-07 -4.613E-10  2.930E+02  2.947E+02
  1.200E-02  1.978E-01 -1.103E-06 -2.934E-07 -5.613E-10  2.930E+02  2.940E+02
  1.200E-02  2.062E-01 -1.102E-06 -2.934E-07 -6.781E-10  2.930E+02  2.936E+02
  1.200E-02  2.146E-01 -1.102E-06 -2.933E-07 -8.151E-10  2.930E+02  2.934E+02
  1.200E-02  2.230E-01 -1.101E-06 -2.933E-07 -9.765E-10  2.930E+02  2.932E+02
  1.200E-02  2.315E-01 -1.100E-06 -2.932E-07 -1.167E-09  2.930E+02  2.931E+02
  1.200E-02  2.399E-01 -1.099E-06 -2.931E-07 -1.392E-09  2.930E+02  2.931E+02
  1.200E-02  2.483E-01 -1.098E-06 -2.930E-07 -1.659E-09  2.930E+02  2.930E+02
  1.200E-02  2.567E-01 -1.097E-06 -2.928E-07 -1.975E-09  2.930E+02  2.930E+02
  1.200E-02  2.651E-01 -1.095E-06 -2.927E-07 -2.350E-09  2.930E+02  2.930E+02
  1.200E-02  2.735E-01 -1.093E-06 -2.925E-07 -2.795E-09  2.930E+02  2.930E+02
  1.200E-02  2.820E-01 -1.091E-06 -2.922E-07 -3.322E-09  2.930E+02  2.930E+02
  1.200E-02  2.904E-01 -1.088E-06 -2.920E-07 -3.949E-09  2.930E+02  2.930E+02
  1.200E-02  2.988E-01 -1.085E-06 -2.916E-07 -4.693E-09  2.930E+02  2.930E+02
  1.200E-02  3.072E-01 -1.081E-06 -2.912E-07 -5.576E-09  2.930E+02  2.930E+02
  1.200E-02  3.156E-01 -1.076E-06 -2.908E-07 -6.624E-09  2.930E+02  2.930E+02
  1.200E-02  3.240E-01 -1.071E-06 -2.902E-07 -7.869E-09  2.930E+02  2.930E+02
  1.200E-02  3.325E-01 -1.064E-06 -2.896E-07 -9.348E-09  2.930E+02  2.930E+02
  1.200E-02  3.409E-01 -1.056E-06 -2.888E-07 -1.110E-08  2.930E+02  2.930E+02
  1.200E-02  3.493E-01 -1.047E-06 -2.879E-07 -1.319E-08  2.930E+02  2.931E+02
  1.200E-02  3.577E-01 -1.036E-06 -2.869E-07 -1.567E-08  2.930E+02  2.932E+02
  1.200E-02  3.661E-01 -1.023E-06 -2.856E-07 -1.861E-08  2.930E+02  2.933E+02
  1.200E-02  3.745E-01 -1.008E-06 -2.840E-07 -2.210E-08  2.930E+02  2.935E+02
  1.200E-02  3.830E-01 -9.895E-07 -2.822E-07 -2.626E-08  2.930E+02  2.939E+02
  1.200E-02  3.914E-01 -9.678E-07 -2.801E-07 -3.120E-08  2.930E+02  2.945E+02
  1.200E-02  3.998E-01 -9.419E-07 -2.775E-07 -3.709E-08  2.930E+02  2.956E+02
  1.200E-02  4.082E-01 -9.111E-07 -2.744E-07 -4.412E-08  2.930E+02  2.972E+02
  1.200E-02  4.166E-01 -8.745E-07 -2.706E-07 -5.252E-08  2.930E+02  2.998E+02
  1.200E-02  4.250E-01 -8.309E-07 -2.659E-07 -6.260E-08  2.930E+02  3.037E+02
  1.200E-02  4.335E-01 -7.789E-07 -2.602E-07 -7.478E-08  2.930E+02  3.094E+02
  1.200E-02  4.419E-01 -7.167E-07 -2.529E-07 -8.953E-08  2.930E+02  3.176E+02
  1.200E-02  4.503E-01 -6.422E-07 -2.434E-07 -1.078E-07  2.930E+02  3.289E+02
  1.200E-02  4.587E-01 -5.521E-07 -2.306E-07 -1.313E-07  2.930E+02  3.440E+02
  1.200E-02  4.671E-01 -4.416E-07 -2.124E-07 -1.609E-07  2.930E+02  3.633E+02
  1.200E-02  4.755E-01 -3.064E-07 -1.834E-07 -1.871E-07  2.930E+02  3.871E+02
  1.200E-02  4.840E-01 -1.558E-07 -1.335E-07 -1.827E-07  2.930E+02  4.151E+02
  1.200E-02  4.924E-01 -2.774E-08 -5.737E-08 -1.189E-07  2.933E+02  4.468E+02
  1.200E-02  5.008E-01  2.522E-08  1.151E-08 -2.826E-09  3.076E+02  4.808E+02
  1.200E-02  5.050E-01  0.000E+00  0.000E+00 -2.826E-09  2.930E+02  2.930E+02
  2.000E-02  0.000E+00 -9.399E-07 -1.980E-07  0.000E+00  2.930E+02  2.930E+02
  2.000E-02  4.208E-03 -9.402E-07 -1.980E-07  7.512E-10  2.930E+02  2.933E+02
  2.000E-02  1.262E-02 -9.406E-07 -1.988E-07  6.244E-10  2.930E+02  2.938E+02
  2.000E-02  2.104E-02 -9.412E-07 -1.994E-07  8.039E-10  2.930E+02  2.946E+02
  2.000E-02  2.946E-02 -9.418E-07 -1.998E-07  8.402E-10  2.930E+02  2.956E+02
  2.000E-02  3.787E-02 -9.425E-07 -2.000E-07  7.535E-10  2.930E+02  2.970E+02
  2.000E-02  4.629E-02 -9.430E-07 -2.002E-07  6.334E-10  2.930E+02  2.989E+02
  2.000E-02  5.471E-02 -9.434E-07 -2.003E-07  5.215E-10  2.930E+02  3.014E+02
  2.000E-02  6.313E-02 -9.438E-07 -2.003E-07  4.261E-10  2.930E+02  3.045E+02
  2.000E-02  7.154E-02 -9.441E-07 -2.004E-07  3.451E-10  2.930E+02  3.080E+02
  2.000E-02  7.996E-02 -9.443E-07 -2.004E-07  2.755E-10  2.930E+02  3.116E+02
  2.000E-02  8.838E-02 -9.445E-07 -2.004E-07  2.148E-10  2.930E+02  3.148E+02
  2.000E-02  9.679E-02 -9.447E-07 -2.004E-07  1.608E-10  2.930E+02  3.170E+02
  2.000E-02  1.052E-01 -9.448E-07 -2.004E-07  1.117E-10  2.931E+02  3.178E+02
  2.000E-02  1.136E-01 -9.448E-07 -2.004E-07  6.574E-11  2.930E+02  3.170E+02
  2.000E-02  1.220E-01 -9.449E-07 -2.004E-07  2.165E-11  2.930E+02  3.148E+02
  2.000E-02  1.305E-01 -9.449E-07 -2.004E-07 -2.193E-11  2.930E+02  3.116E+02
  2.000E-02  1.389E-01 -9.448E-07 -2.004E-07 -6.637E-11  2.930E+02  3.080E+02
  2.000E-02  1.473E-01 -9.448E-07 -2.004E-07 -1.130E-10  2.930E+02  3.045E+02
  2.000E-02  1.557E-01 -9.447E-07 -2.004E-07 -1.631E-10  2.930E+02  3.015E+02
  2.000E-02  1.641E-01 -9.445E-07 -2.004E-07 -2.182E-10  2.930E+02  2.990E+02
  2.000E-02  1.725E-01 -9.443E-07 -2.004E-07 -2.799E-10  2.930E+02  2.970E+02
  2.000E-02  1.810E-01 -9.441E-07 -2.004E-07 -3.500E-10  2.930E+02  2.956E+02
  2.000E-02  1.894E-01 -9.438E-07 -2.003E-07 -4.307E-10  2.930E+02  2.947E+02
  2.000E-02  1.978E-01 -9.434E-07 -2.003E-07 -5.244E-10  2.930E+02  2.940E+02
  2.000E-02  2.062E-01 -9.430E-07 -2.002E-07 -6.337E-10  2.930E+02  2.936E+02
  2.000E-02  2.146E-01 -9.425E-07 -2.002E-07 -7.619E-10  2.930E+02  2.934E+02
  2.000E-02  2.230E-01 -9.418E-07 -2.001E-07 -9.129E-10  2.930E+02  2.932E+02
  2.000E-02  2.315E-01 -9.411E-07 -2.000E-07 -1.091E-09  2.930E+02  2.931E+02
  2.000E-02  2.399E-01 -9.402E-07 -1.999E-07 -1.302E-09  2.930E+02  2.931E+02
  2.000E-02  2.483E-01 -9.391E-07 -1.998E-07 -1.551E-09  2.930E+02  2.930E+02
  2.000E-02  2.567E-01 -9.378E-07 -1.997E-07 -1.847E-09  2.930E+02  2.930E+02
  2.000E-02  2.651E-01 -9.363E-07 -1.995E-07 -2.198E-09  2.930E+02  2.930E+02
  2.000E-02  2.735E-01 -9.345E-07 -1.993E-07 -2.614E-09  2.930E+02  2.930E+02
  2.000E-02  2.820E-01 -9.323E-07 -1.991E-07 -3.108E-09  2.930E+02  2.930E+02
  2.000E-02  2.904E-01 -9.297E-07 -1.989E-07 -3.695E-09  2.930E+02  2.930E+02
  2.000E-02  2.988E-01 -9.266E-07 -1.985E-07 -4.391E-09  2.930E+02  2.930E+02
  2.000E-02  3.072E-01 -9.230E-07 -1.982E-07 -5.217E-09  2.930E+02  2.930E+02
  2.000E-02  3.156E-01 -9.187E-07 -1.977E-07 -6.199E-09  2.930E+02  2.930E+02
  2.000E-02  3.240E-01 -9.135E-07 -1.972E-07 -7.365E-09  2.930E+02  2.930E+02
  2.000E-02  3.325E-01 -9.074E-07 -1.965E-07 -8.749E-09  2.930E+02  2.930E+02
  2.000E-02  3.409E-01 -9.002E-07 -1.958E-07 -1.039E-08  2.930E+02  2.930E+02
  2.000E-02  3.493E-01 -8.916E-07 -1.949E-07 -1.234E-08  2.930E+02  2.931E+02
  2.000E-02  3.577E-01 -8.813E-07 -1.939E-07 -1.466E-08  2.930E+02  2.932E+02
  2.000E-02  3.661E-01 -8.692E-07 -1.926E-07 -1.741E-08  2.930E+02  2.933E+02
  2.000E-02  3.745E-01 -8.547E-07 -1.911E-07 -2.068E-08  2.930E+02  2.935E+02
  2.000E-02  3.830E-01 -8.376E-07 -1.893E-07 -2.457E-08  2.930E+02  2.939E+02
  2.000E-02  3.914E-01 -8.172E-07 -1.872E-07 -2.918E-08  2.930E+02  2.945E+02
  2.000E-02  3.998E-01 -7.930E-07 -1.847E-07 -3.466E-08  2.930E+02  2.955E+02
  2.000E-02  4.082E-01 -7.643E-07 -1.816E-07 -4.118E-08  2.930E+02  2.972E+02
  2.000E-02  4.166E-01 -7.302E-07 -1.779E-07 -4.894E-08  2.930E+02  2.997E+02
  2.000E-02  4.250E-01 -6.896E-07 -1.734E-07 -5.819E-08  2.930E+02  3.036E+02
  2.000E-02  4.335E-01 -6.413E-07 -1.678E-07 -6.924E-08  2.930E+02  3.093E+02
  2.000E-02  4.419E-01 -5.838E-07 -1.608E-07 -8.242E-08  2.930E+02  3.175E+02
  2.000E-02  4.503E-01 -5.154E-07 -1.518E-07 -9.834E-08  2.930E+02  3.288E+02
  2.000E-02  4.587E-01 -4.336E-07 -1.398E-07 -1.181E-07  2.930E+02  3.439E+02
  2.000E-02  4.671E-01 -3.350E-07 -1.226E-07 -1.405E-07  2.930E+02  3.632E+02
  2.000E-02  4.755E-01 -2.189E-07 -9.605E-08 -1.546E-07  2.930E+02  3.870E+02
  2.000E-02  4.840E-01 -9.899E-08 -5.743E-08 -1.377E-07  2.930E+02  4.150E+02
  2.000E-02  4.924E-01 -9.033E-09 -1.530E-08 -7.657E-08  2.933E+02  4.467E+02
  2.000E-02  5.008E-01  1.725E-08  8.180E-09  4.735E-09  3.076E+02  4.808E+02
  2.000E-02  5.050E-01  0.000E+00  0.000E+00  4.735E-09  2.930E+02  2.930E+02
  2.800E-02  0.000E+00 -8.100E-07 -1.763E-07  0.000E+00  2.930E+02  2.930E+02
  2.800E-02  4.208E-03 -8.103E-07 -1.763E-07  5.006E-10  2.930E+02  2.933E+02
  2.800E-02  1.262E-02 -8.106E-07 -1.765E-07  3.754E-10  2.930E+02  2.938E+02
  2.800E-02  2.104E-02 -8.109E-07 -1.767E-07  4.852E-10  2.930E+02  2.946E+02
  2.800E-02  2.946E-02 -8.113E-07 -1.770E-07  5.740E-10  2.930E+02  2.956E+02
  2.800E-02  3.787E-02 -8.117E-07 -1.772E-07  5.731E-10  2.930E+02  2.970E+02
  2.800E-02  4.629E-02 -8.122E-07 -1.773E-07  5.174E-10  2.930E+02  2.989E+02
  2.800E-02  5.471E-02 -8.125E-07 -1.774E-07  4.449E-10  2.930E+02  3.015E+02
  2.800E-02  6.313E-02 -8.129E-07 -1.775E-07  3.731E-10  2.930E+02  3.045E+02
  2.800E-02  7.154E-02 -8.131E-07 -1.775E-07  3.072E-10  2.930E+02  3.080E+02
  2.800E-02  7.996E-02 -8.133E-07 -1.776E-07  2.480E-10  2.930E+02  3.116E+02
  2.800E-02  8.838E-02 -8.135E-07 -1.776E-07  1.948E-10  2.930E+02  3.148E+02
  2.800E-02  9.679E-02 -8.136E-07 -1.776E-07  1.467E-10  2.930E+02  3.170E+02
  2.800E-02  1.052E-01 -8.137E-07 -1.776E-07  1.023E-10  2.931E+02  3.178E+02
  2.800E-02  1.136E-01 -8.138E-07 -1.776E-07  6.050E-11  2.930E+02  3.170E+02
  2.800E-02  1.220E-01 -8.138E-07 -1.776E-07  2.021E-11  2.930E+02  3.148E+02
  2.800E-02  1.305E-01 -8.138E-07 -1.776E-07 -1.977E-11  2.930E+02  3.116E+02
  2.800E-02  1.389E-01 -8.138E-07 -1.776E-07 -6.056E-11  2.930E+02  3.080E+02
  2.800E-02  1.473E-01 -8.137E-07 -1.776E-07 -1.034E-10  2.930E+02  3.045E+02
  2.800E-02  1.557E-01 -8.136E-07 -1.776E-07 -1.494E-10  2.930E+02  3.015E+02
  2.800E-02  1.641E-01 -8.135E-07 -1.776E-07 -2.000E-10  2.930E+02  2.990E+02
  2.800E-02  1.725E-01 -8.133E-07 -1.776E-07 -2.567E-10  2.930E+02  2.970E+02
  2.800E-02  1.810E-01 -8.131E-07 -1.775E-07 -3.212E-10  2.930E+02  2.957E+02
  2.800E-02  1.894E-01 -8.128E-07 -1.775E-07 -3.953E-10  2.930E+02  2.947E+02
  2.800E-02  1.978E-01 -8.125E-07 -1.775E-07 -4.813E-10  2.930E+02  2.940E+02
  2.800E-02  2.062E-01 -8.121E-07 -1.774E-07 -5.816E-10  2.930E+02  2.936E+02
  2.800E-02  2.146E-01 -8.116E-07 -1.773E-07 -6.994E-10  2.930E+02  2.934E+02
  2.800E-02  2.230E-01 -8.110E-07 -1.772E-07 -8.381E-10  2.930E+02  2.932E+02
  2.800E-02  2.315E-01 -8.103E-07 -1.772E-07 -1.002E-09  2.930E+02  2.931E+02
  2.800E-02  2.399E-01 -8.095E-07 -1.770E-07 -1.195E-09  2.930E+02  2.931E+02
  2.800E-02  2.483E-01 -8.085E-07 -1.769E-07 -1.425E-09  2.930E+02  2.930E+02
  2.800E-02  2.567E-01 -8.073E-07 -1.767E-07 -1.696E-09  2.930E+02  2.930E+02
  2.800E-02  2.651E-01 -8.059E-07 -1.765E-07 -2.018E-09  2.930E+02  2.930E+02
  2.800E-02  2.735E-01 -8.043E-07 -1.763E-07 -2.401E-09  2.930E+02  2.930E+02
  2.800E-02  2.820E-01 -8.023E-07 -1.760E-07 -2.854E-09  2.930E+02  2.930E+02
  2.800E-02  2.904E-01 -7.999E-07 -1.757E-07 -3.393E-09  2.930E+02  2.930E+02
  2.800E-02  2.988E-01 -7.971E-07 -1.753E-07 -4.033E-09  2.930E+02  2.930E+02
  2.800E-02  3.072E-01 -7.937E-07 -1.749E-07 -4.792E-09  2.930E+02  2.930E+02
  2.800E-02  3.156E-01 -7.898E-07 -1.743E-07 -5.694E-09  2.930E+02  2.930E+02
  2.800E-02  3.240E-01 -7.850E-07 -1.737E-07 -6.765E-09  2.930E+02  2.930E+02
  2.800E-02  3.325E-01 -7.794E-07 -1.729E-07 -8.036E-09  2.930E+02  2.930E+02
  2.800E-02  3.409E-01 -7.728E-07 -1.720E-07 -9.546E-09  2.930E+02  2.930E+02
  2.800E-02  3.493E-01 -7.649E-07 -1.709E-07 -1.134E-08  2.930E+02  2.931E+02
  2.800E-02  3.577E-01 -7.555E-07 -1.696E-07 -1.347E-08  2.930E+02  2.932E+02
  2.800E-02  3.661E-01 -7.443E-07 -1.681E-07 -1.600E-08  2.930E+02  2.933E+02
  2.800E-02  3.745E-01 -7.310E-07 -1.662E-07 -1.899E-08  2.930E+02  2.935E+02
  2.800E-02  3.830E-01 -7.153E-07 -1.640E-07 -2.255E-08  2.930E+02  2.939E+02
  2.800E-02  3.914E-01 -6.966E-07 -1.615E-07 -2.678E-08  2.930E+02  2.945E+02
  2.800E-02  3.998E-01 -6.744E-07 -1.584E-07 -3.178E-08  2.930E+02  2.955E+02
  2.800E-02  4.082E-01 -6.481E-07 -1.547E-07 -3.772E-08  2.930E+02  2.971E+02
  2.800E-02  4.166E-01 -6.168E-07 -1.502E-07 -4.474E-08  2.930E+02  2.997E+02
  2.800E-02  4.250E-01 -5.797E-07 -1.448E-07 -5.304E-08  2.930E+02  3.035E+02
  2.800E-02  4.335E-01 -5.358E-07 -1.381E-07 -6.283E-08  2.930E+02  3.092E+02
  2.800E-02  4.419E-01 -4.838E-07 -1.299E-07 -7.429E-08  2.930E+02  3.174E+02
  2.800E-02  4.503E-01 -4.223E-07 -1.195E-07 -8.776E-08  2.930E+02  3.286E+02
  2.800E-02  4.587E-01 -3.498E-07 -1.059E-07 -1.036E-07  2.930E+02  3.436E+02
  2.800E-02  4.671E-01 -2.642E-07 -8.716E-08 -1.193E-07  2.930E+02  3.629E+02
  2.800E-02  4.755E-01 -1.675E-07 -6.087E-08 -1.252E-07  2.930E+02  3.867E+02
  2.800E-02  4.840E-01 -7.308E-08 -2.877E-08 -1.060E-07  2.930E+02  4.148E+02
  2.800E-02  4.924E-01 -6.127E-09 -2.160E-09 -5.660E-08  2.933E+02  4.466E+02
  2.800E-02  5.008E-01  1.288E-08  5.135E-09  3.933E-09  3.076E+02  4.808E+02
  2.800E-02  5.050E-01  0.000E+00  0.000E+00  3.933E-09  2.930E+02  2.930E+02
  3.600E-02  0.000E+00 -6.844E-07 -1.740E-07  0.000E+00  2.930E+02  2.930E+02
  3.600E-02  4.208E-03 -6.846E-07 -1.740E-07  4.016E-10  2.930E+02  2.933E+02
  3.600E-02  1.262E-02 -6.848E-07 -1.741E-07  2.800E-10  2.930E+02  2.938E+02
  3.600E-02  2.104E-02 -6.850E-07 -1.742E-07  3.271E-10  2.930E+02  2.946E+02
  3.600E-02  2.946E-02 -6.853E-07 -1.744E-07  3.973E-10  2.930E+02  2.956E+02
  3.600E-02  3.787E-02 -6.857E-07 -1.745E-07  4.227E-10  2.930E+02  2.970E+02
  3.600E-02  4.629E-02 -6.860E-07 -1.747E-07  4.043E-10  2.930E+02  2.989E+02
  3.600E-02  5.471E-02 -6.863E-07 -1.748E-07  3.626E-10  2.930E+02  3.015E+02
  3.600E-02  6.313E-02 -6.865E-07 -1.748E-07  3.129E-10  2.930E+02  3.045E+02
  3.600E-02  7.154E-02 -6.868E-07 -1.749E-07  2.626E-10  2.930E+02  3.080E+02
  3.600E-02  7.996E-02 -6.869E-07 -1.749E-07  2.147E-10  2.930E+02  3.116E+02
  3.600E-02  8.838E-02 -6.871E-07 -1.750E-07  1.702E-10  2.930E+02  3.148E+02
  3.600E-02  9.679E-02 -6.872E-07 -1.750E-07  1.289E-10  2.930E+02  3.170E+02
  3.600E-02  1.052E-01 -6.873E-07 -1.750E-07  9.028E-11  2.931E+02  3.178E+02
  3.600E-02  1.136E-01 -6.873E-07 -1.750E-07  5.361E-11  2.930E+02  3.170E+02
  3.600E-02  1.220E-01 -6.874E-07 -1.750E-07  1.804E-11  2.930E+02  3.148E+02
  3.600E-02  1.305E-01 -6.874E-07 -1.750E-07 -1.737E-11  2.930E+02  3.116E+02
  3.600E-02  1.389E-01 -6.873E-07 -1.750E-07 -5.357E-11  2.930E+02  3.080E+02
  3.600E-02  1.473E-01 -6.873E-07 -1.750E-07 -9.156E-11  2.930E+02  3.045E+02
  3.600E-02  1.557E-01 -6.872E-07 -1.750E-07 -1.325E-10  2.930E+02  3.015E+02
  3.600E-02  1.641E-01 -6.871E-07 -1.750E-07 -1.775E-10  2.930E+02  2.990E+02
  3.600E-02  1.725E-01 -6.869E-07 -1.749E-07 -2.279E-10  2.930E+02  2.970E+02
  3.600E-02  1.810E-01 -6.867E-07 -1.749E-07 -2.851E-10  2.930E+02  2.957E+02
  3.600E-02  1.894E-01 -6.865E-07 -1.748E-07 -3.510E-10  2.930E+02  2.947E+02
  3.600E-02  1.978E-01 -6.862E-07 -1.748E-07 -4.274E-10  2.930E+02  2.940E+02
  3.600E-02  2.062E-01 -6.858E-07 -1.747E-07 -5.166E-10  2.930E+02  2.936E+02
  3.600E-02  2.146E-01 -6.854E-07 -1.746E-07 -6.213E-10  2.930E+02  2.934E+02
  3.600E-02  2.230E-01 -6.849E-07 -1.745E-07 -7.445E-10  2.930E+02  2.932E+02
  3.600E-02  2.315E-01 -6.843E-07 -1.744E-07 -8.900E-10  2.930E+02  2.931E+02
  3.600E-02  2.399E-01 -6.835E-07 -1.743E-07 -1.062E-09  2.930E+02  2.931E+02
  3.600E-02  2.483E-01 -6.827E-07 -1.741E-07 -1.266E-09  2.930E+02  2.930E+02
  3.600E-02  2.567E-01 -6.816E-07 -1.739E-07 -1.507E-09  2.930E+02  2.930E+02
  3.600E-02  2.651E-01 -6.804E-07 -1.737E-07 -1.793E-09  2.930E+02  2.930E+02
  3.600E-02  2.735E-01 -6.789E-07 -1.734E-07 -2.133E-09  2.930E+02  2.930E+02
  3.600E-02  2.820E-01 -6.771E-07 -1.731E-07 -2.536E-09  2.930E+02  2.930E+02
  3.600E-02  2.904E-01 -6.750E-07 -1.727E-07 -3.015E-09  2.930E+02  2.930E+02
  3.600E-02  2.988E-01 -6.725E-07 -1.722E-07 -3.584E-09  2.930E+02  2.930E+02
  3.600E-02  3.072E-01 -6.695E-07 -1.716E-07 -4.259E-09  2.930E+02  2.930E+02
  3.600E-02  3.156E-01 -6.660E-07 -1.709E-07 -5.060E-09  2.930E+02  2.930E+02
  3.600E-02  3.240E-01 -6.618E-07 -1.701E-07 -6.012E-09  2.930E+02  2.930E+02
  3.600E-02  3.325E-01 -6.568E-07 -1.692E-07 -7.143E-09  2.930E+02  2.930E+02
  3.600E-02  3.409E-01 -6.509E-07 -1.681E-07 -8.485E-09  2.930E+02  2.930E+02
  3.600E-02  3.493E-01 -6.439E-07 -1.667E-07 -1.008E-08  2.930E+02  2.931E+02
  3.600E-02  3.577E-01 -6.355E-07 -1.652E-07 -1.197E-08  2.930E+02  2.932E+02
  3.600E-02  3.661E-01 -6.256E-07 -1.633E-07 -1.422E-08  2.930E+02  2.933E+02
  3.600E-02  3.745E-01 -6.138E-07 -1.610E-07 -1.688E-08  2.930E+02  2.935E+02
  3.600E-02  3.830E-01 -5.998E-07 -1.584E-07 -2.003E-08  2.930E+02  2.939E+02
  3.600E-02  3.914E-01 -5.832E-07 -1.552E-07 -2.377E-08  2.930E+02  2.945E+02
  3.600E-02  3.998E-01 -5.635E-07 -1.514E-07 -2.820E-08  2.930E+02  2.955E+02
  3.600E-02  4.082E-01 -5.402E-07 -1.469E-07 -3.341E-08  2.930E+02  2.971E+02
  3.600E-02  4.166E-01 -5.125E-07 -1.415E-07 -3.956E-08  2.930E+02  2.996E+02
  3.600E-02  4.250E-01 -4.797E-07 -1.350E-07 -4.675E-08  2.930E+02  3.034E+02
  3.600E-02  4.335E-01 -4.411E-07 -1.272E-07 -5.510E-08  2.930E+02  3.091E+02
  3.600E-02  4.419E-01 -3.956E-07 -1.175E-07 -6.467E-08  2.930E+02  3.172E+02
  3.600E-02  4.503E-01 -3.423E-07 -1.056E-07 -7.551E-08  2.930E+02  3.284E+02
  3.600E-02  4.587E-01 -2.803E-07 -9.046E-08 -8.740E-08  2.930E+02  3.433E+02
  3.600E-02  4.671E-01 -2.088E-07 -7.079E-08 -9.776E-08  2.930E+02  3.626E+02
  3.600E-02  4.755E-01 -1.310E-07 -4.590E-08 -9.909E-08  2.930E+02  3.864E+02
  3.600E-02  4.840E-01 -5.771E-08 -1.939E-08 -8.192E-08  2.930E+02  4.146E+02
  3.600E-02  4.924E-01 -6.248E-09 -4.632E-10 -4.435E-08  2.933E+02  4.464E+02
  3.600E-02  5.008E-01  9.711E-09  3.619E-09  1.907E-09  3.076E+02  4.807E+02
  3.600E-02  5.050E-01  0.000E+00  0.000E+00  1.907E-09  2.930E+02  2.930E+02
  4.400E-02  0.000E+00 -5.579E-07 -1.749E-07  0.000E+00  2.930E+02  2.930E+02
  4.400E-02  4.208E-03 -5.580E-07 -1.749E-07  2.842E-10  2.930E+02  2.933E+02
  4.400E-02  1.262E-02 -5.582E-07 -1.750E-07  2.013E-10  2.930E+02  2.938E+02
  4.400E-02  2.104E-02 -5.583E-07 -1.751E-07  2.295E-10  2.930E+02  2.946E+02
  4.400E-02  2.946E-02 -5.585E-07 -1.752E-07  2.793E-10  2.930E+02  2.956E+02
  4.400E-02  3.787E-02 -5.587E-07 -1.753E-07  3.068E-10  2.930E+02  2.970E+02
  4.400E-02  4.629E-02 -5.590E-07 -1.754E-07  3.053E-10  2.930E+02  2.989E+02
  4.400E-02  5.471E-02 -5.592E-07 -1.755E-07  2.834E-10  2.930E+02  3.015E+02
  4.400E-02  6.313E-02 -5.594E-07 -1.755E-07  2.510E-10  2.930E+02  3.045E+02
  4.400E-02  7.154E-02 -5.596E-07 -1.756E-07  2.146E-10  2.930E+02  3.080E+02
  4.400E-02  7.996E-02 -5.597E-07 -1.756E-07  1.778E-10  2.930E+02  3.116E+02