VARIABLES="XP","YP","P","U","V","TS","TF"
ZONE T="Zone 001"I=    82 J=    22 F=POINT
  0.000E+00  0.000E+00  1.013E+05  0.000E+00  0.000E+00  6.563E-01  5.010E+02
  0.000E+00  3.156E-03  1.013E+05  0.000E+00  0.000E+00  6.563E-01  5.010E+02
  0.000E+00  9.469E-03  1.013E+05  0.000E+00  0.000E+00  6.641E-01  5.017E+02
  0.000E+00  1.578E-02  1.013E+05  0.000E+00  0.000E+00  6.748E-01  5.030E+02
  0.000E+00  2.209E-02  1.013E+05  0.000E+00  0.000E+00  6.847E-01  5.052E+02
  0.000E+00  2.841E-02  1.013E+05  0.000E+00  0.000E+00  6.983E-01  5.080E+02
  0.000E+00  3.472E-02  1.013E+05  0.000E+00  0.000E+00  7.222E-01  5.116E+02
  0.000E+00  4.103E-02  1.013E+05  0.000E+00  0.000E+00  7.601E-01  5.159E+02
  0.000E+00  4.734E-02  1.013E+05  0.000E+00  0.000E+00  8.141E-01  5.210E+02
  0.000E+00  5.366E-02  1.013E+05  0.000E+00  0.000E+00  8.971E-01  5.269E+02
  0.000E+00  5.997E-02  1.013E+05  0.000E+00  0.000E+00  1.034E+00  5.336E+02
  0.000E+00  6.628E-02  1.013E+05  0.000E+00  0.000E+00  1.260E+00  5.411E+02
  0.000E+00  7.259E-02  1.013E+05  0.000E+00  0.000E+00  1.623E+00  5.493E+02
  0.000E+00  7.891E-02  1.013E+05  0.000E+00  0.000E+00  2.166E+00  5.581E+02
  0.000E+00  8.522E-02  1.013E+05  0.000E+00  0.000E+00  2.941E+00  5.676E+02
  0.000E+00  9.153E-02  1.013E+05  0.000E+00  0.000E+00  3.993E+00  5.779E+02
  0.000E+00  9.784E-02  1.013E+05  0.000E+00  0.000E+00  5.352E+00  5.891E+02
  0.000E+00  1.042E-01  1.013E+05  0.000E+00  0.000E+00  7.040E+00  6.011E+02
  0.000E+00  1.105E-01  1.013E+05  0.000E+00  0.000E+00  5.283E+00  5.770E+02
  0.000E+00  1.168E-01  1.013E+05  0.000E+00  0.000E+00  3.886E+00  5.535E+02
  0.000E+00  1.231E-01  1.013E+05  0.000E+00  0.000E+00  2.815E+00  5.306E+02
  0.000E+00  1.294E-01  1.013E+05  0.000E+00  0.000E+00  2.015E+00  5.084E+02
  0.000E+00  1.357E-01  1.013E+05  0.000E+00  0.000E+00  1.438E+00  4.869E+02
  0.000E+00  1.420E-01  1.013E+05  0.000E+00  0.000E+00  1.040E+00  4.661E+02
  0.000E+00  1.483E-01  1.013E+05  0.000E+00  0.000E+00  7.792E-01  4.458E+02
  0.000E+00  1.547E-01  1.013E+05  0.000E+00  0.000E+00  6.045E-01  4.262E+02
  0.000E+00  1.610E-01  1.013E+05  0.000E+00  0.000E+00  4.854E-01  4.072E+02
  0.000E+00  1.673E-01  1.013E+05  0.000E+00  0.000E+00  4.057E-01  3.888E+02
  0.000E+00  1.736E-01  1.013E+05  0.000E+00  0.000E+00  3.540E-01  3.710E+02
  0.000E+00  1.799E-01  1.013E+05  0.000E+00  0.000E+00  3.199E-01  3.536E+02
  0.000E+00  1.862E-01  1.013E+05  0.000E+00  0.000E+00  2.929E-01  3.368E+02
  0.000E+00  1.925E-01  1.013E+05  0.000E+00  0.000E+00  2.688E-01  3.206E+02
  0.000E+00  1.988E-01  1.013E+05  0.000E+00  0.000E+00  2.533E-01  3.048E+02
  0.000E+00  2.052E-01  1.013E+05  0.000E+00  0.000E+00  2.397E-01  2.895E+02
  0.000E+00  2.115E-01  1.013E+05  0.000E+00  0.000E+00  2.252E-01  2.747E+02
  0.000E+00  2.178E-01  1.013E+05  0.000E+00  0.000E+00  2.120E-01  2.604E+02
  0.000E+00  2.241E-01  1.013E+05  0.000E+00  0.000E+00  2.052E-01  2.465E+02
  0.000E+00  2.304E-01  1.013E+05  0.000E+00  0.000E+00  2.013E-01  2.330E+02
  0.000E+00  2.367E-01  1.013E+05  0.000E+00  0.000E+00  1.950E-01  2.201E+02
  0.000E+00  2.430E-01  1.013E+05  0.000E+00  0.000E+00  1.865E-01  2.077E+02
  0.000E+00  2.493E-01  1.013E+05  0.000E+00  0.000E+00  1.801E-01  1.957E+02
  0.000E+00  2.557E-01  1.013E+05  0.000E+00  0.000E+00  1.754E-01  1.841E+02
  0.000E+00  2.620E-01  1.013E+05  0.000E+00  0.000E+00  1.727E-01  1.731E+02
  0.000E+00  2.683E-01  1.013E+05  0.000E+00  0.000E+00  1.696E-01  1.624E+02
  0.000E+00  2.746E-01  1.013E+05  0.000E+00  0.000E+00  1.653E-01  1.523E+02
  0.000E+00  2.809E-01  1.013E+05  0.000E+00  0.000E+00  1.603E-01  1.426E+02
  0.000E+00  2.872E-01  1.013E+05  0.000E+00  0.000E+00  1.540E-01  1.333E+02
  0.000E+00  2.935E-01  1.013E+05  0.000E+00  0.000E+00  1.469E-01  1.245E+02
  0.000E+00  2.998E-01  1.013E+05  0.000E+00  0.000E+00  1.414E-01  1.162E+02
  0.000E+00  3.062E-01  1.013E+05  0.000E+00  0.000E+00  1.405E-01  1.082E+02
  0.000E+00  3.125E-01  1.013E+05  0.000E+00  0.000E+00  1.417E-01  1.006E+02
  0.000E+00  3.188E-01  1.013E+05  0.000E+00  0.000E+00  1.426E-01  9.341E+01
  0.000E+00  3.251E-01  1.013E+05  0.000E+00  0.000E+00  1.423E-01  8.665E+01
  0.000E+00  3.314E-01  1.013E+05  0.000E+00  0.000E+00  1.406E-01  8.030E+01
  0.000E+00  3.377E-01  1.013E+05  0.000E+00  0.000E+00  1.373E-01  7.435E+01
  0.000E+00  3.440E-01  1.013E+05  0.000E+00  0.000E+00  1.329E-01  6.878E+01
  0.000E+00  3.503E-01  1.013E+05  0.000E+00  0.000E+00  1.275E-01  6.359E+01
  0.000E+00  3.567E-01  1.013E+05  0.000E+00  0.000E+00  1.216E-01  5.876E+01
  0.000E+00  3.630E-01  1.013E+05  0.000E+00  0.000E+00  1.164E-01  5.425E+01
  0.000E+00  3.693E-01  1.013E+05  0.000E+00  0.000E+00  1.123E-01  5.006E+01
  0.000E+00  3.756E-01  1.013E+05  0.000E+00  0.000E+00  1.087E-01  4.618E+01
  0.000E+00  3.819E-01  1.013E+05  0.000E+00  0.000E+00  1.054E-01  4.258E+01
  0.000E+00  3.882E-01  1.013E+05  0.000E+00  0.000E+00  1.024E-01  3.926E+01
  0.000E+00  3.945E-01  1.013E+05  0.000E+00  0.000E+00  9.920E-02  3.622E+01
  0.000E+00  4.008E-01  1.013E+05  0.000E+00  0.000E+00  9.571E-02  3.343E+01
  0.000E+00  4.072E-01  1.013E+05  0.000E+00  0.000E+00  9.296E-02  3.087E+01
  0.000E+00  4.135E-01  1.013E+05  0.000E+00  0.000E+00  9.367E-02  2.851E+01
  0.000E+00  4.198E-01  1.013E+05  0.000E+00  0.000E+00  9.510E-02  2.637E+01
  0.000E+00  4.261E-01  1.013E+05  0.000E+00  0.000E+00  9.516E-02  2.445E+01
  0.000E+00  4.324E-01  1.013E+05  0.000E+00  0.000E+00  9.393E-02  2.275E+01
  0.000E+00  4.387E-01  1.013E+05  0.000E+00  0.000E+00  9.166E-02  2.124E+01
  0.000E+00  4.450E-01  1.013E+05  0.000E+00  0.000E+00  8.786E-02  1.994E+01
  0.000E+00  4.513E-01  1.013E+05  0.000E+00  0.000E+00  8.253E-02  1.882E+01
  0.000E+00  4.577E-01  1.013E+05  0.000E+00  0.000E+00  7.644E-02  1.787E+01
  0.000E+00  4.640E-01  1.013E+05  0.000E+00  0.000E+00  7.054E-02  1.707E+01
  0.000E+00  4.703E-01  1.013E+05  0.000E+00  0.000E+00  6.496E-02  1.642E+01
  0.000E+00  4.766E-01  1.013E+05  0.000E+00  0.000E+00  6.130E-02  1.588E+01
  0.000E+00  4.829E-01  1.013E+05  0.000E+00  0.000E+00  5.804E-02  1.546E+01
  0.000E+00  4.892E-01  1.013E+05  0.000E+00  0.000E+00  5.495E-02  1.516E+01
  0.000E+00  4.955E-01  1.013E+05  0.000E+00  0.000E+00  5.179E-02  1.498E+01
  0.000E+00  5.018E-01  1.013E+05  0.000E+00  0.000E+00  4.856E-02  1.491E+01
  0.000E+00  5.050E-01  1.013E+05  0.000E+00  0.000E+00  4.856E-02  1.491E+01
  4.000E-03  0.000E+00  1.013E+05  0.000E+00  0.000E+00  6.563E-01  5.010E+02
  4.000E-03  3.156E-03  1.013E+05  6.737E-14 -7.680E-14  6.563E-01  5.010E+02
  4.000E-03  9.469E-03  1.013E+05  4.517E-14 -3.814E-13  6.641E-01  5.017E+02
  4.000E-03  1.578E-02  1.013E+05 -1.119E-13 -8.493E-13  6.748E-01  5.030E+02
  4.000E-03  2.209E-02  1.013E+05 -7.411E-14 -8.621E-13  6.847E-01  5.052E+02
  4.000E-03  2.841E-02  1.013E+05 -1.823E-13 -4.214E-13  6.983E-01  5.080E+02
  4.000E-03  3.472E-02  1.013E+05 -1.275E-13  2.232E-13  7.222E-01  5.116E+02
  4.000E-03  4.103E-02  1.013E+05 -3.121E-14  8.507E-13  7.601E-01  5.159E+02
  4.000E-03  4.734E-02  1.013E+05  3.801E-15  1.101E-12  8.141E-01  5.210E+02
  4.000E-03  5.366E-02  1.013E+05  8.848E-14  1.056E-12  8.971E-01  5.269E+02
  4.000E-03  5.997E-02  1.013E+05  7.150E-14  7.339E-13  1.034E+00  5.336E+02
  4.000E-03  6.628E-02  1.013E+05 -7.743E-14  1.282E-13  1.260E+00  5.411E+02
  4.000E-03  7.259E-02  1.013E+05 -1.373E-13 -2.146E-13  1.623E+00  5.493E+02
  4.000E-03  7.891E-02  1.013E+05 -2.035E-13 -7.161E-15  2.166E+00  5.581E+02
  4.000E-03  8.522E-02  1.013E+05 -1.746E-13  2.288E-13  2.941E+00  5.676E+02
  4.000E-03  9.153E-02  1.013E+05 -6.597E-14  6.617E-13  3.993E+00  5.779E+02
  4.000E-03  9.784E-02  1.013E+05  3.334E-14  9.826E-13  5.352E+00  5.891E+02
  4.000E-03  1.042E-01  1.013E+05  1.387E-13  9.015E-13  7.040E+00  6.011E+02
  4.000E-03  1.105E-01  1.013E+05  1.618E-13  3.795E-13  5.283E+00  5.770E+02
  4.000E-03  1.168E-01  1.013E+05  2.309E-13 -5.039E-14  3.886E+00  5.535E+02
  4.000E-03  1.231E-01  1.013E+05 -2.499E-14 -4.876E-13  2.815E+00  5.306E+02
  4.000E-03  1.294E-01  1.013E+05 -7.024E-14 -6.050E-13  2.015E+00  5.084E+02
  4.000E-03  1.357E-01  1.013E+05 -1.935E-13 -3.661E-13  1.438E+00  4.869E+02
  4.000E-03  1.420E-01  1.013E+05 -1.211E-13  1.298E-13  1.040E+00  4.661E+02
  4.000E-03  1.483E-01  1.013E+05 -1.071E-14  7.142E-13  7.792E-01  4.458E+02
  4.000E-03  1.547E-01  1.013E+05  1.704E-13  8.616E-13  6.045E-01  4.262E+02
  4.000E-03  1.610E-01  1.013E+05  5.211E-15  7.468E-13  4.854E-01  4.072E+02
  4.000E-03  1.673E-01  1.013E+05 -2.321E-14  4.230E-13  4.057E-01  3.888E+02
  4.000E-03  1.736E-01  1.013E+05 -3.312E-14  3.625E-14  3.540E-01  3.710E+02
  4.000E-03  1.799E-01  1.013E+05 -1.983E-13 -1.971E-13  3.199E-01  3.536E+02
  4.000E-03  1.862E-01  1.013E+05 -1.222E-13 -2.962E-13  2.929E-01  3.368E+02
  4.000E-03  1.925E-01  1.013E+05  2.026E-15  6.509E-14  2.688E-01  3.206E+02
  4.000E-03  1.988E-01  1.013E+05  7.101E-14  3.983E-13  2.533E-01  3.048E+02
  4.000E-03  2.052E-01  1.013E+05  1.451E-13  4.730E-13  2.397E-01  2.895E+02
  4.000E-03  2.115E-01  1.013E+05  2.457E-13  4.184E-13  2.252E-01  2.747E+02
  4.000E-03  2.178E-01  1.013E+05  1.910E-13  1.382E-13  2.120E-01  2.604E+02
  4.000E-03  2.241E-01  1.013E+05  1.003E-13 -1.807E-13  2.052E-01  2.465E+02
  4.000E-03  2.304E-01  1.013E+05 -7.477E-14 -5.380E-13  2.013E-01  2.330E+02
  4.000E-03  2.367E-01  1.013E+05 -6.191E-14 -5.463E-13  1.950E-01  2.201E+02
  4.000E-03  2.430E-01  1.013E+05 -3.467E-14 -1.131E-13  1.865E-01  2.077E+02
  4.000E-03  2.493E-01  1.013E+05 -1.251E-13  2.302E-13  1.801E-01  1.957E+02
  4.000E-03  2.557E-01  1.013E+05 -3.369E-14  2.734E-13  1.754E-01  1.841E+02
  4.000E-03  2.620E-01  1.013E+05  8.100E-14  5.611E-13  1.727E-01  1.731E+02
  4.000E-03  2.683E-01  1.013E+05 -4.166E-14  4.294E-13  1.696E-01  1.624E+02
  4.000E-03  2.746E-01  1.013E+05 -2.010E-14  3.368E-14  1.653E-01  1.523E+02
  4.000E-03  2.809E-01  1.013E+05 -7.505E-14 -4.583E-14  1.603E-01  1.426E+02
  4.000E-03  2.872E-01  1.013E+05 -2.005E-13 -2.119E-13  1.540E-01  1.333E+02
  4.000E-03  2.935E-01  1.013E+05 -1.733E-13 -2.376E-13  1.469E-01  1.245E+02
  4.000E-03  2.998E-01  1.013E+05 -1.670E-13 -2.956E-13  1.414E-01  1.162E+02
  4.000E-03  3.062E-01  1.013E+05 -4.464E-14 -4.540E-13  1.405E-01  1.082E+02
  4.000E-03  3.125E-01  1.013E+05  1.027E-13 -4.919E-13  1.417E-01  1.006E+02
  4.000E-03  3.188E-01  1.013E+05  3.455E-13 -6.087E-13  1.426E-01  9.341E+01
  4.000E-03  3.251E-01  1.013E+05  6.126E-13 -6.881E-13  1.423E-01  8.665E+01
  4.000E-03  3.314E-01  1.013E+05  9.173E-13 -5.093E-13  1.406E-01  8.030E+01
  4.000E-03  3.377E-01  1.013E+05  1.028E-12 -4.672E-13  1.373E-01  7.435E+01
  4.000E-03  3.440E-01  1.013E+05  1.223E-12 -7.167E-13  1.329E-01  6.878E+01
  4.000E-03  3.503E-01  1.013E+05  1.290E-12 -7.356E-13  1.275E-01  6.359E+01
  4.000E-03  3.567E-01  1.013E+05  1.094E-12 -5.814E-13  1.216E-01  5.876E+01
  4.000E-03  3.630E-01  1.013E+05  7.633E-13 -3.606E-13  1.164E-01  5.425E+01
  4.000E-03  3.693E-01  1.013E+05  2.530E-13  1.318E-13  1.123E-01  5.006E+01
  4.000E-03  3.756E-01  1.013E+05 -2.820E-13  8.646E-13  1.087E-01  4.618E+01
  4.000E-03  3.819E-01  1.013E+05 -5.617E-13  1.987E-12  1.054E-01  4.258E+01
  4.000E-03  3.882E-01  1.013E+05 -7.406E-13  3.384E-12  1.024E-01  3.926E+01
  4.000E-03  3.945E-01  1.013E+05 -5.466E-13  4.293E-12  9.920E-02  3.622E+01
  4.000E-03  4.008E-01  1.013E+05 -1.247E-13  3.860E-12  9.571E-02  3.343E+01
  4.000E-03  4.072E-01  1.013E+05 -2.805E-13  1.514E-12  9.296E-02  3.087E+01
  4.000E-03  4.135E-01  1.013E+05 -1.504E-12 -1.835E-12  9.367E-02  2.851E+01
  4.000E-03  4.198E-01  1.013E+05 -3.609E-12 -3.235E-12  9.510E-02  2.637E+01
  4.000E-03  4.261E-01  1.013E+05 -5.715E-12  5.743E-13  9.516E-02  2.445E+01
  4.000E-03  4.324E-01  1.013E+05 -6.361E-12  9.399E-12  9.393E-02  2.275E+01
  4.000E-03  4.387E-01  1.013E+05 -5.168E-12  1.793E-11  9.166E-02  2.124E+01
  4.000E-03  4.450E-01  1.013E+05 -2.626E-12  2.024E-11  8.786E-02  1.994E+01
  4.000E-03  4.513E-01  1.013E+05 -1.132E-12  1.244E-11  8.253E-02  1.882E+01
  4.000E-03  4.577E-01  1.013E+05 -2.173E-12 -1.546E-12  7.644E-02  1.787E+01
  4.000E-03  4.640E-01  1.013E+05 -4.013E-12 -9.109E-12  7.054E-02  1.707E+01
  4.000E-03  4.703E-01  1.013E+05 -3.082E-12 -1.061E-12  6.496E-02  1.642E+01
  4.000E-03  4.766E-01  1.013E+05  2.638E-13  9.074E-12  6.130E-02  1.588E+01
  4.000E-03  4.829E-01  1.013E+05  6.110E-13  3.143E-12  5.804E-02  1.546E+01
  4.000E-03  4.892E-01  1.013E+05 -2.867E-12 -1.139E-11  5.495E-02  1.516E+01
  4.000E-03  4.955E-01  1.013E+05 -3.414E-12 -9.292E-12  5.179E-02  1.498E+01
  4.000E-03  5.018E-01  1.013E+05 -1.951E-12  8.152E-13  4.856E-02  1.491E+01
  4.000E-03  5.050E-01  1.013E+05 -1.951E-12  8.152E-13  4.856E-02  1.491E+01
  1.200E-02  0.000E+00  1.013E+05  0.000E+00  0.000E+00  6.473E-01  5.012E+02
  1.200E-02  3.156E-03  1.013E+05 -2.375E-13 -2.145E-13  6.473E-01  5.012E+02
  1.200E-02  9.469E-03  1.013E+05 -3.109E-13 -6.197E-13  6.555E-01  5.018E+02
  1.200E-02  1.578E-02  1.013E+05 -2.386E-13 -8.415E-13  6.655E-01  5.032E+02
  1.200E-02  2.209E-02  1.013E+05 -1.258E-15 -7.324E-13  6.752E-01  5.053E+02
  1.200E-02  2.841E-02  1.013E+05  3.025E-13 -4.481E-13  6.915E-01  5.081E+02
  1.200E-02  3.472E-02  1.013E+05  6.774E-13  3.861E-13  7.164E-01  5.117E+02
  1.200E-02  4.103E-02  1.013E+05  7.888E-13  8.422E-13  7.522E-01  5.160E+02
  1.200E-02  4.734E-02  1.013E+05  6.279E-13  9.687E-13  8.030E-01  5.211E+02
  1.200E-02  5.366E-02  1.013E+05  4.380E-13  8.231E-13  8.848E-01  5.271E+02
  1.200E-02  5.997E-02  1.013E+05  1.733E-13  4.803E-13  1.022E+00  5.338E+02
  1.200E-02  6.628E-02  1.013E+05 -1.929E-13 -3.578E-14  1.253E+00  5.412E+02
  1.200E-02  7.259E-02  1.013E+05 -1.116E-13 -8.524E-14  1.621E+00  5.493E+02
  1.200E-02  7.891E-02  1.013E+05 -9.095E-14  1.650E-13  2.170E+00  5.581E+02
  1.200E-02  8.522E-02  1.013E+05  7.817E-14  4.640E-13  2.947E+00  5.676E+02
  1.200E-02  9.153E-02  1.013E+05  2.444E-13  8.768E-13  3.999E+00  5.778E+02
  1.200E-02  9.784E-02  1.013E+05  2.132E-13  1.213E-12  5.356E+00  5.890E+02
  1.200E-02  1.042E-01  1.013E+05  4.775E-14  9.106E-13  7.041E+00  6.011E+02
  1.200E-02  1.105E-01  1.013E+05 -2.307E-13  4.963E-13  5.283E+00  5.769E+02
  1.200E-02  1.168E-01  1.013E+05 -3.063E-13 -1.950E-13  3.883E+00  5.534E+02
  1.200E-02  1.231E-01  1.013E+05 -4.558E-13 -5.812E-13  2.811E+00  5.305E+02
  1.200E-02  1.294E-01  1.013E+05 -2.336E-13 -6.073E-13  2.009E+00  5.084E+02
  1.200E-02  1.357E-01  1.013E+05  3.721E-14 -2.937E-13  1.431E+00  4.869E+02
  1.200E-02  1.420E-01  1.013E+05  3.542E-13  3.729E-13  1.038E+00  4.660E+02
  1.200E-02  1.483E-01  1.013E+05  3.498E-13  8.476E-13  7.759E-01  4.457E+02
  1.200E-02  1.547E-01  1.013E+05  2.978E-13  6.964E-13  5.973E-01  4.262E+02
  1.200E-02  1.610E-01  1.013E+05  1.704E-15  3.551E-13  4.770E-01  4.072E+02
  1.200E-02  1.673E-01  1.013E+05 -2.685E-13  3.077E-13  4.035E-01  3.887E+02
  1.200E-02  1.736E-01  1.013E+05 -3.862E-13 -1.938E-14  3.559E-01  3.708E+02
  1.200E-02  1.799E-01  1.013E+05 -3.718E-13 -1.305E-13  3.218E-01  3.534E+02
  1.200E-02  1.862E-01  1.013E+05 -1.123E-13  6.661E-14  2.939E-01  3.366E+02
  1.200E-02  1.925E-01  1.013E+05  2.370E-13  4.092E-13  2.738E-01  3.203E+02
  1.200E-02  1.988E-01  1.013E+05  3.913E-13  5.373E-13  2.579E-01  3.045E+02
  1.200E-02  2.052E-01  1.013E+05  2.713E-13  6.416E-13  2.421E-01  2.892E+02
  1.200E-02  2.115E-01  1.013E+05  1.392E-13  2.702E-13  2.249E-01  2.744E+02
  1.200E-02  2.178E-01  1.013E+05 -6.465E-14 -7.923E-14  2.132E-01  2.601E+02
  1.200E-02  2.241E-01  1.013E+05 -1.563E-13 -4.210E-13  2.076E-01  2.462E+02
  1.200E-02  2.304E-01  1.013E+05 -3.137E-13 -5.877E-13  2.022E-01  2.328E+02
  1.200E-02  2.367E-01  1.013E+05 -1.361E-13 -3.265E-13  1.940E-01  2.199E+02
  1.200E-02  2.430E-01  1.013E+05  1.131E-13 -9.430E-14  1.861E-01  2.074E+02
  1.200E-02  2.493E-01  1.013E+05  1.443E-13  1.796E-13  1.808E-01  1.954E+02
  1.200E-02  2.557E-01  1.013E+05  1.989E-13  3.674E-13  1.780E-01  1.839E+02
  1.200E-02  2.620E-01  1.013E+05  2.187E-14  3.783E-13  1.764E-01  1.728E+02
  1.200E-02  2.683E-01  1.013E+05 -3.475E-13  2.019E-13  1.746E-01  1.621E+02
  1.200E-02  2.746E-01  1.013E+05 -6.393E-13  1.276E-13  1.715E-01  1.520E+02
  1.200E-02  2.809E-01  1.013E+05 -8.325E-13 -4.285E-15  1.666E-01  1.423E+02
  1.200E-02  2.872E-01  1.013E+05 -9.656E-13  1.695E-14  1.602E-01  1.330E+02
  1.200E-02  2.935E-01  1.013E+05 -7.929E-13  1.269E-13  1.531E-01  1.242E+02
  1.200E-02  2.998E-01  1.013E+05 -6.248E-13  1.343E-13  1.481E-01  1.159E+02
  1.200E-02  3.062E-01  1.013E+05 -2.094E-13  2.102E-14  1.463E-01  1.079E+02
  1.200E-02  3.125E-01  1.013E+05  3.796E-13 -1.017E-13  1.465E-01  1.003E+02
  1.200E-02  3.188E-01  1.013E+05  9.469E-13 -1.578E-13  1.470E-01  9.313E+01
  1.200E-02  3.251E-01  1.013E+05  1.647E-12 -4.451E-13  1.470E-01  8.637E+01
  1.200E-02  3.314E-01  1.013E+05  2.213E-12 -5.648E-13  1.460E-01  8.002E+01
  1.200E-02  3.377E-01  1.013E+05  2.573E-12 -9.384E-13  1.436E-01  7.407E+01
  1.200E-02  3.440E-01  1.013E+05  2.856E-12 -1.296E-12  1.398E-01  6.850E+01
  1.200E-02  3.503E-01  1.013E+05  3.063E-12 -1.567E-12  1.350E-01  6.332E+01
  1.200E-02  3.567E-01  1.013E+05  3.144E-12 -1.730E-12  1.293E-01  5.849E+01
  1.200E-02  3.630E-01  1.013E+05  3.116E-12 -1.596E-12  1.233E-01  5.400E+01
  1.200E-02  3.693E-01  1.013E+05  2.985E-12 -1.274E-12  1.176E-01  4.983E+01
  1.200E-02  3.756E-01  1.013E+05  2.814E-12 -3.414E-13  1.124E-01  4.597E+01
  1.200E-02  3.819E-01  1.013E+05  2.770E-12  7.731E-13  1.079E-01  4.240E+01
  1.200E-02  3.882E-01  1.013E+05  2.767E-12  2.110E-12  1.042E-01  3.910E+01
  1.200E-02  3.945E-01  1.013E+05  2.460E-12  2.802E-12  1.006E-01  3.606E+01
  1.200E-02  4.008E-01  1.013E+05  1.881E-12  1.194E-12  9.721E-02  3.328E+01
  1.200E-02  4.072E-01  1.013E+05  6.328E-13 -3.731E-12  9.684E-02  3.071E+01
  1.200E-02  4.135E-01  1.013E+05 -2.040E-13 -9.239E-12  9.889E-02  2.835E+01
  1.200E-02  4.198E-01  1.013E+05  4.670E-14 -1.057E-11  1.002E-01  2.622E+01
  1.200E-02  4.261E-01  1.013E+05  1.146E-12 -3.050E-12  9.968E-02  2.431E+01
  1.200E-02  4.324E-01  1.013E+05  1.955E-12  1.132E-11  9.787E-02  2.262E+01
  1.200E-02  4.387E-01  1.013E+05  7.721E-13  2.382E-11  9.529E-02  2.112E+01
  1.200E-02  4.450E-01  1.013E+05 -3.259E-12  2.530E-11  9.106E-02  1.983E+01
  1.200E-02  4.513E-01  1.013E+05 -9.344E-12  1.233E-11  8.526E-02  1.872E+01
  1.200E-02  4.577E-01  1.013E+05 -1.300E-11 -5.220E-12  7.928E-02  1.777E+01
  1.200E-02  4.640E-01  1.013E+05 -1.027E-11 -8.786E-12  7.372E-02  1.698E+01
  1.200E-02  4.703E-01  1.013E+05 -6.612E-12  5.206E-12  6.843E-02  1.633E+01
  1.200E-02  4.766E-01  1.013E+05 -8.044E-12  1.174E-11  6.468E-02  1.579E+01
  1.200E-02  4.829E-01  1.013E+05 -1.166E-11 -2.233E-12  6.036E-02  1.539E+01
  1.200E-02  4.892E-01  1.013E+05 -5.975E-12 -1.279E-11  5.647E-02  1.511E+01
  1.200E-02  4.955E-01  1.013E+05  5.582E-13 -2.612E-12  5.256E-02  1.493E+01
  1.200E-02  5.018E-01  1.013E+05 -1.062E-12  9.539E-12  5.016E-02  1.485E+01
  1.200E-02  5.050E-01  1.013E+05 -1.062E-12  9.539E-12  5.016E-02  1.485E+01
  2.000E-02  0.000E+00  1.013E+05  0.000E+00  0.000E+00  6.232E-01  5.015E+02
  2.000E-02  3.156E-03  1.013E+05 -3.158E-13 -2.985E-13  6.232E-01  5.015E+02
  2.000E-02  9.469E-03  1.013E+05 -2.458E-13 -6.288E-13  6.309E-01  5.021E+02
  2.000E-02  1.578E-02  1.013E+05 -2.498E-15 -8.363E-13  6.412E-01  5.035E+02
  2.000E-02  2.209E-02  1.013E+05  3.523E-13 -6.515E-13  6.541E-01  5.056E+02
  2.000E-02  2.841E-02  1.013E+05  7.808E-13  6.943E-14  6.732E-01  5.084E+02
  2.000E-02  3.472E-02  1.013E+05  1.013E-12  5.534E-13  6.982E-01  5.120E+02
  2.000E-02  4.103E-02  1.013E+05  9.440E-13  7.427E-13  7.301E-01  5.163E+02
  2.000E-02  4.734E-02  1.013E+05  8.154E-13  8.732E-13  7.786E-01  5.214E+02
  2.000E-02  5.366E-02  1.013E+05  4.578E-13  6.271E-13  8.602E-01  5.274E+02
  2.000E-02  5.997E-02  1.013E+05  1.229E-13  1.293E-13  1.002E+00  5.340E+02
  2.000E-02  6.628E-02  1.013E+05 -1.158E-14 -2.214E-13  1.242E+00  5.413E+02
  2.000E-02  7.259E-02  1.013E+05  1.664E-13 -1.568E-13  1.618E+00  5.493E+02
  2.000E-02  7.891E-02  1.013E+05  3.456E-13  1.741E-13  2.174E+00  5.580E+02
  2.000E-02  8.522E-02  1.013E+05  4.332E-13  7.381E-13  2.955E+00  5.675E+02
  2.000E-02  9.153E-02  1.013E+05  4.688E-13  1.183E-12  4.004E+00  5.777E+02
  2.000E-02  9.784E-02  1.013E+05  2.157E-13  1.154E-12  5.354E+00  5.889E+02
  2.000E-02  1.042E-01  1.013E+05 -9.131E-14  8.622E-13  7.034E+00  6.010E+02
  2.000E-02  1.105E-01  1.013E+05 -3.351E-13  2.863E-13  5.275E+00  5.769E+02
  2.000E-02  1.168E-01  1.013E+05 -5.323E-13 -3.574E-13  3.875E+00  5.534E+02
  2.000E-02  1.231E-01  1.013E+05 -2.191E-13 -5.823E-13  2.797E+00  5.305E+02
  2.000E-02  1.294E-01  1.013E+05  5.802E-14 -2.909E-13  1.993E+00  5.084E+02
  2.000E-02  1.357E-01  1.013E+05  4.263E-13  1.415E-14  1.422E+00  4.868E+02
  2.000E-02  1.420E-01  1.013E+05  5.570E-13  3.661E-13  1.029E+00  4.659E+02
  2.000E-02  1.483E-01  1.013E+05  3.504E-13  7.315E-13  7.644E-01  4.456E+02
  2.000E-02  1.547E-01  1.013E+05 -1.474E-14  5.965E-13  5.846E-01  4.260E+02
  2.000E-02  1.610E-01  1.013E+05 -2.269E-13  3.388E-13  4.677E-01  4.070E+02
  2.000E-02  1.673E-01  1.013E+05 -4.078E-13  1.583E-13  3.971E-01  3.885E+02
  2.000E-02  1.736E-01  1.013E+05 -4.492E-13 -2.327E-14  3.511E-01  3.705E+02
  2.000E-02  1.799E-01  1.013E+05 -1.877E-13  1.897E-13  3.186E-01  3.531E+02
  2.000E-02  1.862E-01  1.013E+05  1.836E-13  4.241E-13  2.959E-01  3.362E+02
  2.000E-02  1.925E-01  1.013E+05  3.663E-13  6.249E-13  2.781E-01  3.199E+02
  2.000E-02  1.988E-01  1.013E+05  3.594E-13  5.897E-13  2.594E-01  3.041E+02
  2.000E-02  2.052E-01  1.013E+05  1.890E-13  4.383E-13  2.405E-01  2.888E+02
  2.000E-02  2.115E-01  1.013E+05 -1.498E-13  7.885E-14  2.246E-01  2.740E+02
  2.000E-02  2.178E-01  1.013E+05 -3.210E-13 -2.769E-13  2.162E-01  2.596E+02
  2.000E-02  2.241E-01  1.013E+05 -2.973E-13 -4.447E-13  2.091E-01  2.457E+02
  2.000E-02  2.304E-01  1.013E+05 -1.403E-13 -6.393E-13  2.016E-01  2.323E+02
  2.000E-02  2.367E-01  1.013E+05  5.328E-15 -1.859E-13  1.911E-01  2.194E+02
  2.000E-02  2.430E-01  1.013E+05  8.407E-14  1.874E-13  1.846E-01  2.069E+02
  2.000E-02  2.493E-01  1.013E+05  1.935E-13  2.693E-13  1.826E-01  1.949E+02
  2.000E-02  2.557E-01  1.013E+05  1.085E-13  2.494E-13  1.824E-01  1.833E+02
  2.000E-02  2.620E-01  1.013E+05 -2.602E-13  9.793E-14  1.832E-01  1.722E+02
  2.000E-02  2.683E-01  1.013E+05 -5.965E-13 -1.029E-13  1.825E-01  1.615E+02
  2.000E-02  2.746E-01  1.013E+05 -9.096E-13  5.425E-14  1.795E-01  1.514E+02
  2.000E-02  2.809E-01  1.013E+05 -9.464E-13  1.742E-13  1.740E-01  1.417E+02
  2.000E-02  2.872E-01  1.013E+05 -8.362E-13  6.248E-13  1.676E-01  1.324E+02
  2.000E-02  2.935E-01  1.013E+05 -7.340E-13  9.934E-13  1.614E-01  1.236E+02
  2.000E-02  2.998E-01  1.013E+05 -3.654E-13  1.136E-12  1.566E-01  1.153E+02
  2.000E-02  3.062E-01  1.013E+05 -5.165E-14  1.119E-12  1.538E-01  1.073E+02
  2.000E-02  3.125E-01  1.013E+05  5.880E-13  8.158E-13  1.525E-01  9.976E+01
  2.000E-02  3.188E-01  1.013E+05  9.524E-13  5.875E-13  1.520E-01  9.261E+01
  2.000E-02  3.251E-01  1.013E+05  1.518E-12 -5.143E-14  1.521E-01  8.586E+01
  2.000E-02  3.314E-01  1.013E+05  1.825E-12 -9.929E-13  1.518E-01  7.952E+01
  2.000E-02  3.377E-01  1.013E+05  2.079E-12 -1.948E-12  1.505E-01  7.357E+01
  2.000E-02  3.440E-01  1.013E+05  2.373E-12 -2.936E-12  1.478E-01  6.801E+01
  2.000E-02  3.503E-01  1.013E+05  2.722E-12 -3.775E-12  1.436E-01  6.283E+01
  2.000E-02  3.567E-01  1.013E+05  3.073E-12 -4.369E-12  1.380E-01  5.802E+01
  2.000E-02  3.630E-01  1.013E+05  3.348E-12 -4.846E-12  1.317E-01  5.355E+01
  2.000E-02  3.693E-01  1.013E+05  3.594E-12 -4.619E-12  1.251E-01  4.942E+01
  2.000E-02  3.756E-01  1.013E+05  3.729E-12 -3.101E-12  1.184E-01  4.559E+01
  2.000E-02  3.819E-01  1.013E+05  3.232E-12 -1.743E-13  1.122E-01  4.205E+01
  2.000E-02  3.882E-01  1.013E+05  2.493E-12  3.041E-12  1.080E-01  3.877E+01
  2.000E-02  3.945E-01  1.013E+05  9.365E-13  5.440E-12  1.050E-01  3.575E+01
  2.000E-02  4.008E-01  1.013E+05 -1.516E-12  3.799E-12  1.024E-01  3.298E+01
  2.000E-02  4.072E-01  1.013E+05 -3.815E-12 -2.720E-12  1.024E-01  3.042E+01
  2.000E-02  4.135E-01  1.013E+05 -4.024E-12 -1.097E-11  1.047E-01  2.807E+01
  2.000E-02  4.198E-01  1.013E+05 -1.337E-12 -1.378E-11  1.059E-01  2.596E+01
  2.000E-02  4.261E-01  1.013E+05  3.385E-12 -4.548E-12  1.049E-01  2.407E+01
  2.000E-02  4.324E-01  1.013E+05  6.678E-12  1.269E-11  1.029E-01  2.239E+01
  2.000E-02  4.387E-01  1.013E+05  6.992E-12  2.631E-11  1.001E-01  2.092E+01
  2.000E-02  4.450E-01  1.013E+05  2.457E-12  2.526E-11  9.516E-02  1.964E+01
  2.000E-02  4.513E-01  1.013E+05 -4.208E-12  8.597E-12  8.869E-02  1.855E+01
  2.000E-02  4.577E-01  1.013E+05 -6.568E-12 -8.733E-12  8.304E-02  1.761E+01
  2.000E-02  4.640E-01  1.013E+05 -4.907E-12 -4.419E-12  7.858E-02  1.682E+01
  2.000E-02  4.703E-01  1.013E+05 -8.904E-12  1.864E-11  7.432E-02  1.616E+01
  2.000E-02  4.766E-01  1.013E+05 -1.542E-11  2.255E-11  6.979E-02  1.565E+01
  2.000E-02  4.829E-01  1.013E+05 -1.112E-11 -2.020E-13  6.335E-02  1.527E+01
  2.000E-02  4.892E-01  1.013E+05  3.966E-12 -1.196E-11  5.796E-02  1.501E+01
  2.000E-02  4.955E-01  1.013E+05  7.640E-12  7.224E-14  5.331E-02  1.485E+01
  2.000E-02  5.018E-01  1.013E+05  9.072E-14  7.656E-12  5.046E-02  1.477E+01
  2.000E-02  5.050E-01  1.013E+05  9.072E-14  7.656E-12  5.046E-02  1.477E+01
  2.800E-02  0.000E+00  1.013E+05  0.000E+00  0.000E+00  5.938E-01  5.019E+02
  2.800E-02  3.156E-03  1.013E+05 -2.974E-13 -3.262E-13  5.938E-01  5.019E+02
  2.800E-02  9.469E-03  1.013E+05 -8.891E-14 -6.072E-13  6.001E-01  5.026E+02
  2.800E-02  1.578E-02  1.013E+05  5.074E-14 -4.677E-13  6.107E-01  5.039E+02
  2.800E-02  2.209E-02  1.013E+05  6.410E-13 -9.846E-14  6.269E-01  5.060E+02
  2.800E-02  2.841E-02  1.013E+05  9.445E-13  2.576E-13  6.475E-01  5.088E+02
  2.800E-02  3.472E-02  1.013E+05  1.067E-12  5.785E-13  6.702E-01  5.123E+02
  2.800E-02  4.103E-02  1.013E+05  9.648E-13  7.524E-13  6.985E-01  5.167E+02
  2.800E-02  4.734E-02  1.013E+05  6.510E-13  5.223E-13  7.445E-01  5.218E+02
  2.800E-02  5.366E-02  1.013E+05  4.119E-13  1.748E-13  8.300E-01  5.277E+02
  2.800E-02  5.997E-02  1.013E+05  1.391E-13 -5.274E-14  9.813E-01  5.343E+02
  2.800E-02  6.628E-02  1.013E+05  2.122E-13 -6.984E-15  1.231E+00  5.414E+02
  2.800E-02  7.259E-02  1.013E+05  3.698E-13  2.071E-13  1.616E+00  5.493E+02
  2.800E-02  7.891E-02  1.013E+05  6.795E-13  4.622E-13  2.177E+00  5.579E+02
  2.800E-02  8.522E-02  1.013E+05  8.604E-13  8.602E-13  2.956E+00  5.674E+02
  2.800E-02  9.153E-02  1.013E+05  5.469E-13  1.008E-12  3.996E+00  5.777E+02
  2.800E-02  9.784E-02  1.013E+05  2.790E-13  8.487E-13  5.339E+00  5.890E+02
  2.800E-02  1.042E-01  1.013E+05 -1.710E-13  4.915E-13  7.016E+00  6.011E+02
  2.800E-02  1.105E-01  1.013E+05 -3.153E-13 -3.179E-14  5.258E+00  5.769E+02
  2.800E-02  1.168E-01  1.013E+05 -3.040E-13 -1.317E-13  3.854E+00  5.534E+02
  2.800E-02  1.231E-01  1.013E+05  8.517E-14 -1.058E-13  2.774E+00  5.305E+02
  2.800E-02  1.294E-01  1.013E+05  4.888E-13 -4.238E-14  1.982E+00  5.082E+02
  2.800E-02  1.357E-01  1.013E+05  6.491E-13  1.880E-13  1.413E+00  4.866E+02
  2.800E-02  1.420E-01  1.013E+05  6.286E-13  1.296E-13  1.016E+00  4.657E+02
  2.800E-02  1.483E-01  1.013E+05  4.482E-13  3.499E-13  7.470E-01  4.455E+02
  2.800E-02  1.547E-01  1.013E+05 -2.508E-14  2.889E-13  5.677E-01  4.258E+02
  2.800E-02  1.610E-01  1.013E+05 -2.501E-13  2.063E-14  4.555E-01  4.067E+02
  2.800E-02  1.673E-01  1.013E+05 -3.289E-13  9.702E-14  3.878E-01  3.881E+02
  2.800E-02  1.736E-01  1.013E+05 -1.197E-13  2.627E-13  3.462E-01  3.701E+02
  2.800E-02  1.799E-01  1.013E+05  2.245E-13  6.961E-13  3.212E-01  3.526E+02
  2.800E-02  1.862E-01  1.013E+05  2.777E-13  8.654E-13  2.997E-01  3.357E+02
  2.800E-02  1.925E-01  1.013E+05  3.311E-13  6.918E-13  2.787E-01  3.193E+02
  2.800E-02  1.988E-01  1.013E+05  1.366E-13  4.815E-13  2.577E-01  3.035E+02
  2.800E-02  2.052E-01  1.013E+05 -2.038E-13  8.623E-14  2.393E-01  2.882E+02
  2.800E-02  2.115E-01  1.013E+05 -4.558E-13 -2.229E-13  2.278E-01  2.733E+02
  2.800E-02  2.178E-01  1.013E+05 -4.140E-13 -2.733E-13  2.176E-01  2.589E+02
  2.800E-02  2.241E-01  1.013E+05 -3.513E-13 -3.283E-13  2.089E-01  2.450E+02
  2.800E-02  2.304E-01  1.013E+05 -8.098E-14 -3.887E-13  2.010E-01  2.316E+02
  2.800E-02  2.367E-01  1.013E+05  1.759E-13 -2.217E-13  1.931E-01  2.187E+02
  2.800E-02  2.430E-01  1.013E+05  1.743E-13  1.083E-13  1.870E-01  2.062E+02
  2.800E-02  2.493E-01  1.013E+05 -2.143E-14  1.979E-13  1.868E-01  1.941E+02
  2.800E-02  2.557E-01  1.013E+05 -2.654E-13 -7.221E-14  1.898E-01  1.825E+02
  2.800E-02  2.620E-01  1.013E+05 -4.165E-13 -2.305E-13  1.915E-01  1.713E+02
  2.800E-02  2.683E-01  1.013E+05 -4.833E-13 -8.058E-14  1.909E-01  1.607E+02
  2.800E-02  2.746E-01  1.013E+05 -2.801E-13  4.295E-13  1.875E-01  1.505E+02
  2.800E-02  2.809E-01  1.013E+05  2.778E-14  9.062E-13  1.823E-01  1.408E+02
  2.800E-02  2.872E-01  1.013E+05  4.596E-13  1.106E-12  1.762E-01  1.316E+02
  2.800E-02  2.935E-01  1.013E+05  7.448E-13  1.398E-12  1.705E-01  1.228E+02
  2.800E-02  2.998E-01  1.013E+05  8.489E-13  1.541E-12  1.656E-01  1.144E+02
  2.800E-02  3.062E-01  1.013E+05  6.918E-13  1.435E-12  1.617E-01  1.065E+02
  2.800E-02  3.125E-01  1.013E+05  5.388E-13  1.077E-12  1.595E-01  9.898E+01
  2.800E-02  3.188E-01  1.013E+05  2.784E-14  5.982E-13  1.586E-01  9.185E+01
  2.800E-02  3.251E-01  1.013E+05 -6.699E-13 -1.169E-13  1.589E-01  8.512E+01
  2.800E-02  3.314E-01  1.013E+05 -1.452E-12 -1.204E-12  1.599E-01  7.878E+01
  2.800E-02  3.377E-01  1.013E+05 -2.198E-12 -2.417E-12  1.596E-01  7.285E+01