VARIABLES="XP","YP","P","U","V","TS","TF"
ZONE T="Zone 001"I=    82 J=    22 F=POINT
  0.000E+00  0.000E+00 -2.337E-11  0.000E+00  0.000E+00  3.705E-03  4.612E+02
  0.000E+00  3.156E-03 -2.337E-11  0.000E+00  0.000E+00  3.705E-03  4.612E+02
  0.000E+00  9.469E-03  8.878E-12  0.000E+00  0.000E+00  3.516E-03  4.620E+02
  0.000E+00  1.578E-02  7.207E-12  0.000E+00  0.000E+00  3.529E-03  4.636E+02
  0.000E+00  2.209E-02 -1.130E-11  0.000E+00  0.000E+00  3.602E-03  4.660E+02
  0.000E+00  2.841E-02 -3.008E-12  0.000E+00  0.000E+00  3.700E-03  4.692E+02
  0.000E+00  3.472E-02  1.476E-11  0.000E+00  0.000E+00  4.047E-03  4.733E+02
  0.000E+00  4.103E-02  2.380E-12  0.000E+00  0.000E+00  4.113E-03  4.781E+02
  0.000E+00  4.734E-02 -1.309E-11  0.000E+00  0.000E+00  4.356E-03  4.837E+02
  0.000E+00  5.366E-02 -7.310E-12  0.000E+00  0.000E+00  4.664E-03  4.902E+02
  0.000E+00  5.997E-02  3.543E-13  0.000E+00  0.000E+00  5.912E-03  4.974E+02
  0.000E+00  6.628E-02 -4.909E-12  0.000E+00  0.000E+00  1.040E-02  5.054E+02
  0.000E+00  7.259E-02 -2.737E-12  0.000E+00  0.000E+00  2.512E-02  5.142E+02
  0.000E+00  7.891E-02  1.082E-12  0.000E+00  0.000E+00  7.003E-02  5.238E+02
  0.000E+00  8.522E-02 -5.162E-13  0.000E+00  0.000E+00  1.964E-01  5.341E+02
  0.000E+00  9.153E-02  1.260E-12  0.000E+00  0.000E+00  5.202E-01  5.453E+02
  0.000E+00  9.784E-02 -3.641E-12  0.000E+00  0.000E+00  1.259E+00  5.571E+02
  0.000E+00  1.042E-01 -4.601E-12  0.000E+00  0.000E+00  2.707E+00  5.698E+02
  0.000E+00  1.105E-01  1.456E-12  0.000E+00  0.000E+00  1.259E+00  5.461E+02
  0.000E+00  1.168E-01  3.178E-13  0.000E+00  0.000E+00  5.207E-01  5.232E+02
  0.000E+00  1.231E-01 -4.652E-12  0.000E+00  0.000E+00  1.972E-01  5.009E+02
  0.000E+00  1.294E-01  2.381E-12  0.000E+00  0.000E+00  7.138E-02  4.794E+02
  0.000E+00  1.357E-01  1.597E-11  0.000E+00  0.000E+00  2.671E-02  4.587E+02
  0.000E+00  1.420E-01  1.067E-11  0.000E+00  0.000E+00  1.166E-02  4.386E+02
  0.000E+00  1.483E-01 -1.071E-11  0.000E+00  0.000E+00  6.928E-03  4.192E+02
  0.000E+00  1.547E-01 -9.808E-12  0.000E+00  0.000E+00  5.480E-03  4.004E+02
  0.000E+00  1.610E-01  3.513E-12  0.000E+00  0.000E+00  5.124E-03  3.824E+02
  0.000E+00  1.673E-01  1.413E-11  0.000E+00  0.000E+00  5.017E-03  3.649E+02
  0.000E+00  1.736E-01  1.283E-11  0.000E+00  0.000E+00  4.713E-03  3.482E+02
  0.000E+00  1.799E-01 -4.343E-12  0.000E+00  0.000E+00  4.245E-03  3.320E+02
  0.000E+00  1.862E-01  3.015E-12  0.000E+00  0.000E+00  3.998E-03  3.164E+02
  0.000E+00  1.925E-01 -2.056E-12  0.000E+00  0.000E+00  3.751E-03  3.015E+02
  0.000E+00  1.988E-01  3.750E-12  0.000E+00  0.000E+00  3.493E-03  2.871E+02
  0.000E+00  2.052E-01  8.987E-12  0.000E+00  0.000E+00  3.231E-03  2.733E+02
  0.000E+00  2.115E-01 -1.065E-11  0.000E+00  0.000E+00  2.944E-03  2.600E+02
  0.000E+00  2.178E-01 -1.542E-13  0.000E+00  0.000E+00  2.744E-03  2.473E+02
  0.000E+00  2.241E-01  1.619E-11  0.000E+00  0.000E+00  2.603E-03  2.351E+02
  0.000E+00  2.304E-01  9.746E-12  0.000E+00  0.000E+00  2.459E-03  2.234E+02
  0.000E+00  2.367E-01 -9.034E-12  0.000E+00  0.000E+00  2.309E-03  2.122E+02
  0.000E+00  2.430E-01 -5.948E-12  0.000E+00  0.000E+00  2.182E-03  2.015E+02
  0.000E+00  2.493E-01  5.950E-12  0.000E+00  0.000E+00  2.087E-03  1.912E+02
  0.000E+00  2.557E-01  5.521E-12  0.000E+00  0.000E+00  1.936E-03  1.814E+02
  0.000E+00  2.620E-01  2.909E-11  0.000E+00  0.000E+00  1.873E-03  1.721E+02
  0.000E+00  2.683E-01 -2.561E-11  0.000E+00  0.000E+00  1.759E-03  1.631E+02
  0.000E+00  2.746E-01 -4.111E-11  0.000E+00  0.000E+00  1.679E-03  1.546E+02
  0.000E+00  2.809E-01  1.276E-11  0.000E+00  0.000E+00  1.475E-03  1.465E+02
  0.000E+00  2.872E-01  1.653E-11  0.000E+00  0.000E+00  1.374E-03  1.388E+02
  0.000E+00  2.935E-01  8.317E-12  0.000E+00  0.000E+00  1.231E-03  1.314E+02
  0.000E+00  2.998E-01 -7.222E-13  0.000E+00  0.000E+00  1.137E-03  1.244E+02
  0.000E+00  3.062E-01 -1.724E-11  0.000E+00  0.000E+00  1.075E-03  1.178E+02
  0.000E+00  3.125E-01  1.998E-11  0.000E+00  0.000E+00  1.031E-03  1.115E+02
  0.000E+00  3.188E-01  3.769E-11  0.000E+00  0.000E+00  1.090E-03  1.055E+02
  0.000E+00  3.251E-01 -1.410E-11  0.000E+00  0.000E+00  1.127E-03  9.978E+01
  0.000E+00  3.314E-01  3.246E-12  0.000E+00  0.000E+00  1.014E-03  9.441E+01
  0.000E+00  3.377E-01  1.824E-11  0.000E+00  0.000E+00  9.040E-04  8.932E+01
  0.000E+00  3.440E-01  3.896E-11  0.000E+00  0.000E+00  8.892E-04  8.451E+01
  0.000E+00  3.503E-01  4.024E-11  0.000E+00  0.000E+00  9.006E-04  7.998E+01
  0.000E+00  3.567E-01 -6.055E-11  0.000E+00  0.000E+00  8.836E-04  7.570E+01
  0.000E+00  3.630E-01 -3.364E-11  0.000E+00  0.000E+00  7.918E-04  7.168E+01
  0.000E+00  3.693E-01  6.635E-11  0.000E+00  0.000E+00  7.868E-04  6.789E+01
  0.000E+00  3.756E-01  5.086E-11  0.000E+00  0.000E+00  7.506E-04  6.434E+01
  0.000E+00  3.819E-01 -1.106E-12  0.000E+00  0.000E+00  6.665E-04  6.102E+01
  0.000E+00  3.882E-01 -5.042E-11  0.000E+00  0.000E+00  5.699E-04  5.791E+01
  0.000E+00  3.945E-01 -2.115E-11  0.000E+00  0.000E+00  4.918E-04  5.501E+01
  0.000E+00  4.008E-01  4.278E-12  0.000E+00  0.000E+00  4.388E-04  5.230E+01
  0.000E+00  4.072E-01 -1.137E-11  0.000E+00  0.000E+00  3.869E-04  4.980E+01
  0.000E+00  4.135E-01  9.700E-12  0.000E+00  0.000E+00  3.444E-04  4.748E+01
  0.000E+00  4.198E-01  2.197E-12  0.000E+00  0.000E+00  3.180E-04  4.534E+01
  0.000E+00  4.261E-01 -1.408E-11  0.000E+00  0.000E+00  2.900E-04  4.338E+01
  0.000E+00  4.324E-01 -3.839E-12  0.000E+00  0.000E+00  2.635E-04  4.159E+01
  0.000E+00  4.387E-01  1.435E-11  0.000E+00  0.000E+00  2.554E-04  3.997E+01
  0.000E+00  4.450E-01  1.602E-11  0.000E+00  0.000E+00  2.582E-04  3.850E+01
  0.000E+00  4.513E-01  1.166E-11  0.000E+00  0.000E+00  2.439E-04  3.720E+01
  0.000E+00  4.577E-01  7.758E-12  0.000E+00  0.000E+00  2.205E-04  3.605E+01
  0.000E+00  4.640E-01  1.067E-11  0.000E+00  0.000E+00  2.204E-04  3.505E+01
  0.000E+00  4.703E-01  1.509E-11  0.000E+00  0.000E+00  2.343E-04  3.419E+01
  0.000E+00  4.766E-01  1.116E-11  0.000E+00  0.000E+00  2.382E-04  3.349E+01
  0.000E+00  4.829E-01 -1.341E-11  0.000E+00  0.000E+00  2.267E-04  3.292E+01
  0.000E+00  4.892E-01 -5.149E-12  0.000E+00  0.000E+00  2.318E-04  3.250E+01
  0.000E+00  4.955E-01  1.627E-11  0.000E+00  0.000E+00  2.457E-04  3.222E+01
  0.000E+00  5.018E-01  1.062E-12  0.000E+00  0.000E+00  2.516E-04  3.208E+01
  0.000E+00  5.050E-01  1.062E-12  0.000E+00  0.000E+00  2.516E-04  3.208E+01
  4.000E-03  0.000E+00 -1.797E-11  0.000E+00  0.000E+00  3.705E-03  4.612E+02
  4.000E-03  3.156E-03 -9.138E-12 -3.935E-10 -4.292E-10  3.705E-03  4.612E+02
  4.000E-03  9.469E-03  5.232E-12  1.250E-10 -2.647E-10  3.516E-03  4.620E+02
  4.000E-03  1.578E-02  3.195E-12  1.285E-10  7.631E-11  3.529E-03  4.636E+02
  4.000E-03  2.209E-02 -2.656E-12 -2.636E-10  5.423E-11  3.602E-03  4.660E+02
  4.000E-03  2.841E-02 -8.219E-13 -3.801E-11 -1.151E-10  3.700E-03  4.692E+02
  4.000E-03  3.472E-02  4.817E-12  3.611E-10 -7.483E-11  4.047E-03  4.733E+02
  4.000E-03  4.103E-02  2.119E-12  4.843E-11  7.187E-11  4.113E-03  4.781E+02
  4.000E-03  4.734E-02 -2.713E-12 -3.864E-10  3.061E-11  4.356E-03  4.837E+02
  4.000E-03  5.366E-02 -1.753E-12 -2.541E-10 -9.572E-11  4.664E-03  4.902E+02
  4.000E-03  5.997E-02  4.172E-13 -6.368E-12 -1.068E-10  5.912E-03  4.974E+02
  4.000E-03  6.628E-02 -7.532E-13 -9.840E-11 -9.796E-11  1.040E-02  5.054E+02
  4.000E-03  7.259E-02 -8.908E-14 -8.277E-11 -1.292E-10  2.512E-02  5.142E+02
  4.000E-03  7.891E-02  6.241E-13  5.445E-12 -1.360E-10  7.003E-02  5.238E+02
  4.000E-03  8.522E-02  2.106E-14 -8.223E-12 -1.580E-10  1.964E-01  5.341E+02
  4.000E-03  9.153E-02  5.530E-13  9.554E-12 -1.743E-10  5.202E-01  5.453E+02
  4.000E-03  9.784E-02 -8.233E-13 -8.520E-11 -1.882E-10  1.259E+00  5.571E+02
  4.000E-03  1.042E-01 -1.313E-12 -8.522E-11 -2.478E-10  2.707E+00  5.698E+02
  4.000E-03  1.105E-01  3.995E-13  5.267E-11 -2.736E-10  1.259E+00  5.461E+02
  4.000E-03  1.168E-01  3.824E-13  6.038E-12 -2.575E-10  5.207E-01  5.232E+02
  4.000E-03  1.231E-01 -1.012E-12 -8.882E-11 -3.067E-10  1.972E-01  5.009E+02
  4.000E-03  1.294E-01  2.494E-13  1.864E-10 -4.029E-10  7.138E-02  4.794E+02
  4.000E-03  1.357E-01  4.295E-12  5.338E-10 -3.874E-10  2.671E-02  4.587E+02
  4.000E-03  1.420E-01  4.381E-12  2.612E-10 -2.507E-10  1.166E-02  4.386E+02
  4.000E-03  1.483E-01 -1.395E-12 -3.374E-10 -2.254E-10  6.928E-03  4.192E+02
  4.000E-03  1.547E-01 -2.883E-12 -2.873E-10 -3.591E-10  5.480E-03  4.004E+02
  4.000E-03  1.610E-01  6.102E-13  1.526E-10 -4.638E-10  5.124E-03  3.824E+02
  4.000E-03  1.673E-01  5.143E-12  3.967E-10 -4.537E-10  5.017E-03  3.649E+02
  4.000E-03  1.736E-01  7.081E-12  2.072E-10 -3.378E-10  4.713E-03  3.482E+02
  4.000E-03  1.799E-01  4.495E-12 -2.889E-10 -2.401E-10  4.245E-03  3.320E+02
  4.000E-03  1.862E-01  4.916E-12 -1.330E-10 -1.777E-10  3.998E-03  3.164E+02
  4.000E-03  1.925E-01  1.662E-12 -1.118E-10 -2.406E-10  3.751E-03  3.015E+02
  4.000E-03  1.988E-01  5.835E-12 -5.397E-11 -3.586E-10  3.493E-03  2.871E+02
  4.000E-03  2.052E-01  1.034E-11  4.095E-11 -1.771E-10  3.231E-03  2.733E+02
  4.000E-03  2.115E-01  3.868E-12 -3.049E-10 -1.779E-11  2.944E-03  2.600E+02
  4.000E-03  2.178E-01  5.712E-12 -1.670E-10 -9.293E-11  2.744E-03  2.473E+02
  4.000E-03  2.241E-01  1.148E-11  1.374E-10 -4.098E-11  2.603E-03  2.351E+02
  4.000E-03  2.304E-01  1.012E-11  1.341E-11  1.460E-10  2.459E-03  2.234E+02
  4.000E-03  2.367E-01  3.975E-12 -3.734E-10  1.770E-10  2.309E-03  2.122E+02
  4.000E-03  2.430E-01  4.622E-12 -2.860E-10  8.373E-11  2.182E-03  2.015E+02
  4.000E-03  2.493E-01  9.868E-12 -5.292E-11  1.492E-10  2.087E-03  1.912E+02
  4.000E-03  2.557E-01  1.095E-11 -1.527E-11  3.334E-10  1.936E-03  1.814E+02
  4.000E-03  2.620E-01  1.208E-11  4.215E-10  6.447E-10  1.873E-03  1.721E+02
  4.000E-03  2.683E-01 -7.034E-12 -7.592E-10  6.025E-10  1.759E-03  1.631E+02
  4.000E-03  2.746E-01 -7.554E-12 -1.150E-09  1.655E-10  1.679E-03  1.546E+02
  4.000E-03  2.809E-01  9.862E-12 -1.181E-11  3.232E-10  1.475E-03  1.465E+02
  4.000E-03  2.872E-01  6.601E-12  2.544E-10  7.110E-10  1.374E-03  1.388E+02
  4.000E-03  2.935E-01  9.223E-13  1.612E-10  7.426E-10  1.231E-03  1.314E+02
  4.000E-03  2.998E-01 -2.852E-12 -4.296E-12  7.384E-10  1.137E-03  1.244E+02
  4.000E-03  3.062E-01 -9.345E-12 -1.605E-10  5.728E-10  1.075E-03  1.178E+02
  4.000E-03  3.125E-01  5.283E-13  6.893E-10  4.679E-10  1.031E-03  1.115E+02
  4.000E-03  3.188E-01  6.312E-12  9.401E-10  9.085E-10  1.090E-03  1.055E+02
  4.000E-03  3.251E-01 -1.126E-11 -2.296E-10  1.030E-09  1.127E-03  9.978E+01
  4.000E-03  3.314E-01 -9.764E-12  1.447E-10  5.341E-10  1.014E-03  9.441E+01
  4.000E-03  3.377E-01 -2.800E-14  8.944E-10  2.543E-10  9.040E-04  8.932E+01
  4.000E-03  3.440E-01  1.252E-11  1.438E-09  6.132E-10  8.892E-04  8.451E+01
  4.000E-03  3.503E-01  1.190E-11  8.917E-10  1.411E-09  9.006E-04  7.998E+01
  4.000E-03  3.567E-01 -1.960E-11 -1.625E-09  1.173E-09  8.836E-04  7.570E+01
  4.000E-03  3.630E-01 -8.771E-12 -9.702E-10  9.918E-11  7.918E-04  7.168E+01
  4.000E-03  3.693E-01  2.684E-11  1.566E-09  2.313E-10  7.868E-04  6.789E+01
  4.000E-03  3.756E-01  2.423E-11  1.532E-09  1.147E-09  7.506E-04  6.434E+01
  4.000E-03  3.819E-01  4.963E-12  7.301E-11  1.408E-09  6.665E-04  6.102E+01
  4.000E-03  3.882E-01 -8.849E-12 -1.314E-09  9.144E-10  5.699E-04  5.791E+01
  4.000E-03  3.945E-01  3.044E-12 -8.788E-10  6.072E-10  4.918E-04  5.501E+01
  4.000E-03  4.008E-01  8.847E-12 -3.728E-10  8.497E-10  4.388E-04  5.230E+01
  4.000E-03  4.072E-01  1.403E-12 -4.857E-10  8.413E-10  3.869E-04  4.980E+01
  4.000E-03  4.135E-01  6.273E-12  1.840E-10  7.387E-10  3.444E-04  4.748E+01
  4.000E-03  4.198E-01  4.937E-12  8.118E-11  8.812E-10  3.180E-04  4.534E+01
  4.000E-03  4.261E-01 -4.055E-13 -5.208E-10  8.089E-10  2.900E-04  4.338E+01
  4.000E-03  4.324E-01  4.119E-12 -4.126E-10  6.082E-10  2.635E-04  4.159E+01
  4.000E-03  4.387E-01  1.118E-11  1.572E-10  7.019E-10  2.554E-04  3.997E+01
  4.000E-03  4.450E-01  9.183E-12  4.506E-10  9.119E-10  2.582E-04  3.850E+01
  4.000E-03  4.513E-01  5.110E-12  3.208E-10  8.708E-10  2.439E-04  3.720E+01
  4.000E-03  4.577E-01  7.036E-12 -3.196E-11  7.202E-10  2.205E-04  3.605E+01
  4.000E-03  4.640E-01  1.204E-11 -5.561E-11  8.182E-10  2.204E-04  3.505E+01
  4.000E-03  4.703E-01  1.147E-11  3.316E-10  1.108E-09  2.343E-04  3.419E+01
  4.000E-03  4.766E-01  5.396E-12  4.470E-10  1.239E-09  2.382E-04  3.349E+01
  4.000E-03  4.829E-01  1.501E-13 -2.608E-10  1.122E-09  2.267E-04  3.292E+01
  4.000E-03  4.892E-01  7.089E-12 -4.570E-10  1.166E-09  2.318E-04  3.250E+01
  4.000E-03  4.955E-01  1.095E-11 -4.243E-11  1.550E-09  2.457E-04  3.222E+01
  4.000E-03  5.018E-01  4.070E-12 -1.719E-10  1.881E-09  2.516E-04  3.208E+01
  4.000E-03  5.050E-01  0.000E+00 -1.719E-10  1.881E-09  2.516E-04  3.208E+01
  1.200E-02  0.000E+00  1.161E-11  0.000E+00  0.000E+00  3.372E-03  4.612E+02
  1.200E-02  3.156E-03  2.565E-12 -1.428E-10  3.094E-10  3.372E-03  4.612E+02
  1.200E-02  9.469E-03 -1.430E-12  8.273E-11  1.151E-10  3.308E-03  4.620E+02
  1.200E-02  1.578E-02 -1.787E-12  7.053E-11 -1.131E-11  3.372E-03  4.636E+02
  1.200E-02  2.209E-02  1.487E-12 -9.047E-11  1.069E-12  3.559E-03  4.660E+02
  1.200E-02  2.841E-02 -1.384E-12 -2.189E-11  5.163E-11  3.693E-03  4.692E+02
  1.200E-02  3.472E-02 -4.636E-12  1.476E-10 -9.286E-11  3.815E-03  4.733E+02
  1.200E-02  4.103E-02 -8.711E-13  7.739E-11 -2.228E-10  3.952E-03  4.781E+02
  1.200E-02  4.734E-02  2.297E-12 -8.588E-11 -1.530E-10  4.191E-03  4.837E+02
  1.200E-02  5.366E-02 -7.885E-14 -5.636E-11 -1.027E-10  4.765E-03  4.902E+02
  1.200E-02  5.997E-02 -2.150E-12  3.831E-11 -2.246E-10  6.248E-03  4.974E+02
  1.200E-02  6.628E-02 -4.458E-13  2.366E-11 -3.267E-10  1.086E-02  5.054E+02
  1.200E-02  7.259E-02 -3.792E-13  4.455E-11 -3.363E-10  2.568E-02  5.142E+02
  1.200E-02  7.891E-02 -1.591E-12  7.377E-11 -3.889E-10  7.069E-02  5.238E+02
  1.200E-02  8.522E-02 -1.616E-12  5.403E-11 -4.797E-10  1.971E-01  5.341E+02
  1.200E-02  9.153E-02 -1.501E-12  5.861E-11 -5.635E-10  5.210E-01  5.452E+02
  1.200E-02  9.784E-02 -2.479E-13  4.075E-11 -6.170E-10  1.260E+00  5.571E+02
  1.200E-02  1.042E-01 -4.560E-13  3.384E-11 -6.425E-10  2.708E+00  5.698E+02
  1.200E-02  1.105E-01 -2.021E-12  6.734E-11 -7.268E-10  1.260E+00  5.461E+02
  1.200E-02  1.168E-01 -9.638E-13  5.812E-11 -8.290E-10  5.215E-01  5.231E+02
  1.200E-02  1.231E-01  7.114E-13  2.955E-11 -8.167E-10  1.979E-01  5.009E+02
  1.200E-02  1.294E-01 -1.919E-12  1.070E-10 -8.024E-10  7.186E-02  4.794E+02
  1.200E-02  1.357E-01 -4.673E-12  2.218E-10 -9.739E-10  2.712E-02  4.586E+02
  1.200E-02  1.420E-01 -3.812E-13  1.380E-10 -1.130E-09  1.223E-02  4.386E+02
  1.200E-02  1.483E-01  5.103E-12 -7.918E-11 -9.928E-10  7.409E-03  4.192E+02
  1.200E-02  1.547E-01  2.238E-12 -1.033E-10 -7.946E-10  5.919E-03  4.004E+02
  1.200E-02  1.610E-01 -2.283E-12  2.717E-11 -8.341E-10  5.592E-03  3.824E+02
  1.200E-02  1.673E-01 -3.096E-12  1.172E-10 -1.008E-09  5.539E-03  3.649E+02
  1.200E-02  1.736E-01  7.798E-13  8.116E-11 -1.062E-09  5.292E-03  3.481E+02
  1.200E-02  1.799E-01  6.736E-12 -5.356E-11 -7.729E-10  4.751E-03  3.320E+02
  1.200E-02  1.862E-01  1.503E-12 -7.513E-11 -4.828E-10  4.318E-03  3.164E+02
  1.200E-02  1.925E-01 -2.281E-12 -1.393E-10 -5.386E-10  4.116E-03  3.015E+02
  1.200E-02  1.988E-01 -5.294E-13 -5.676E-11 -6.065E-10  3.951E-03  2.871E+02
  1.200E-02  2.052E-01  2.549E-12  8.521E-11 -4.786E-10  3.711E-03  2.733E+02
  1.200E-02  2.115E-01  5.232E-12 -5.087E-11 -2.041E-10  3.406E-03  2.600E+02
  1.200E-02  2.178E-01  1.061E-12 -1.071E-10  2.709E-11  3.139E-03  2.473E+02
  1.200E-02  2.241E-01 -1.936E-12 -2.199E-11  8.857E-11  2.945E-03  2.351E+02
  1.200E-02  2.304E-01 -2.531E-13 -3.456E-11  1.355E-10  2.790E-03  2.234E+02
  1.200E-02  2.367E-01  3.196E-12 -1.444E-10  3.071E-10  2.665E-03  2.122E+02
  1.200E-02  2.430E-01  3.032E-12 -8.456E-11  4.942E-10  2.551E-03  2.015E+02
  1.200E-02  2.493E-01  3.961E-12  3.526E-11  6.653E-10  2.411E-03  1.912E+02
  1.200E-02  2.557E-01  4.714E-12  4.816E-11  1.003E-09  2.263E-03  1.814E+02
  1.200E-02  2.620E-01 -6.509E-12  3.387E-11  9.743E-10  2.082E-03  1.721E+02
  1.200E-02  2.683E-01  2.735E-12 -4.532E-10  7.056E-10  1.905E-03  1.631E+02
  1.200E-02  2.746E-01  1.482E-11 -4.940E-10  1.061E-09  1.815E-03  1.546E+02
  1.200E-02  2.809E-01  8.149E-12 -2.513E-11  1.569E-09  1.743E-03  1.465E+02
  1.200E-02  2.872E-01  1.594E-12  4.061E-11  1.657E-09  1.628E-03  1.388E+02
  1.200E-02  2.935E-01  1.752E-12 -6.414E-11  1.552E-09  1.465E-03  1.314E+02
  1.200E-02  2.998E-01  7.011E-12 -1.778E-10  1.598E-09  1.334E-03  1.244E+02
  1.200E-02  3.062E-01  9.159E-12 -2.287E-10  1.846E-09  1.254E-03  1.178E+02
  1.200E-02  3.125E-01  2.659E-12  7.800E-11  1.944E-09  1.208E-03  1.114E+02
  1.200E-02  3.188E-01  2.780E-12  1.030E-10  1.924E-09  1.213E-03  1.055E+02
  1.200E-02  3.251E-01  8.962E-12 -4.163E-10  2.235E-09  1.238E-03  9.977E+01
  1.200E-02  3.314E-01  3.478E-14 -2.883E-10  2.385E-09  1.168E-03  9.440E+01
  1.200E-02  3.377E-01  1.385E-12  2.244E-10  2.201E-09  1.040E-03  8.931E+01
  1.200E-02  3.440E-01  2.958E-12  5.302E-10  2.297E-09  9.762E-04  8.451E+01
  1.200E-02  3.503E-01 -1.440E-12  2.110E-10  2.373E-09  9.609E-04  7.997E+01
  1.200E-02  3.567E-01  1.043E-11 -6.681E-10  2.566E-09  9.459E-04  7.570E+01
  1.200E-02  3.630E-01  2.673E-12 -3.339E-10  2.897E-09  8.968E-04  7.167E+01
  1.200E-02  3.693E-01 -1.419E-11  6.494E-10  2.709E-09  8.426E-04  6.789E+01
  1.200E-02  3.756E-01 -1.169E-11  6.594E-10  2.403E-09  7.876E-04  6.434E+01
  1.200E-02  3.819E-01 -5.991E-12  6.929E-11  2.273E-09  7.252E-04  6.101E+01
  1.200E-02  3.882E-01  5.928E-12 -3.157E-10  2.321E-09  6.602E-04  5.790E+01
  1.200E-02  3.945E-01  4.980E-12 -2.697E-11  2.485E-09  5.961E-04  5.500E+01
  1.200E-02  4.008E-01 -1.138E-12  5.602E-11  2.463E-09  5.308E-04  5.230E+01
  1.200E-02  4.072E-01 -4.413E-13 -1.349E-10  2.453E-09  4.735E-04  4.979E+01
  1.200E-02  4.135E-01 -2.948E-12  7.054E-11  2.381E-09  4.249E-04  4.748E+01
  1.200E-02  4.198E-01  2.141E-13  8.661E-11  2.191E-09  3.869E-04  4.534E+01
  1.200E-02  4.261E-01  4.243E-12 -1.143E-10  2.212E-09  3.607E-04  4.338E+01
  1.200E-02  4.324E-01  4.066E-12 -9.578E-12  2.380E-09  3.421E-04  4.159E+01
  1.200E-02  4.387E-01  2.740E-12  2.115E-10  2.525E-09  3.282E-04  3.996E+01
  1.200E-02  4.450E-01 -8.945E-13  1.363E-10  2.560E-09  3.142E-04  3.850E+01
  1.200E-02  4.513E-01 -4.085E-12 -7.076E-11  2.393E-09  2.944E-04  3.720E+01
  1.200E-02  4.577E-01  9.210E-13 -1.090E-10  2.328E-09  2.796E-04  3.604E+01
  1.200E-02  4.640E-01  7.394E-12 -1.291E-12  2.739E-09  2.838E-04  3.504E+01
  1.200E-02  4.703E-01  3.076E-12  3.288E-11  3.213E-09  2.927E-04  3.419E+01
  1.200E-02  4.766E-01 -4.595E-12 -1.342E-10  3.126E-09  2.883E-04  3.348E+01
  1.200E-02  4.829E-01  3.561E-12 -4.172E-10  3.021E-09  2.841E-04  3.292E+01
  1.200E-02  4.892E-01  1.093E-11 -4.081E-10  3.598E-09  2.975E-04  3.250E+01
  1.200E-02  4.955E-01  4.010E-12 -3.320E-10  4.237E-09  3.161E-04  3.222E+01
  1.200E-02  5.018E-01  8.145E-13 -5.128E-10  4.490E-09  3.235E-04  3.208E+01
  1.200E-02  5.050E-01  0.000E+00 -5.128E-10  4.490E-09  3.235E-04  3.208E+01
  2.000E-02  0.000E+00  7.321E-12  0.000E+00  0.000E+00  3.381E-03  4.612E+02
  2.000E-02  3.156E-03  3.875E-13 -1.505E-11  3.042E-10  3.381E-03  4.612E+02
  2.000E-02  9.469E-03 -4.822E-13  1.016E-11  1.158E-10  3.302E-03  4.620E+02
  2.000E-02  1.578E-02 -3.721E-13  1.864E-11 -2.127E-11  3.376E-03  4.636E+02
  2.000E-02  2.209E-02  1.553E-12  1.177E-11 -5.901E-11  3.628E-03  4.660E+02
  2.000E-02  2.841E-02  7.716E-13 -3.657E-11 -2.556E-11  3.796E-03  4.692E+02
  2.000E-02  3.472E-02 -8.668E-13 -3.442E-11 -9.030E-11  3.874E-03  4.732E+02
  2.000E-02  4.103E-02 -5.632E-13  5.730E-11 -2.069E-10  4.020E-03  4.781E+02
  2.000E-02  4.734E-02  4.697E-13  1.069E-10 -2.508E-10  4.355E-03  4.837E+02
  2.000E-02  5.366E-02 -3.756E-13  7.250E-11 -2.855E-10  5.002E-03  4.901E+02
  2.000E-02  5.997E-02 -8.283E-13  5.353E-11 -3.954E-10  6.573E-03  4.974E+02
  2.000E-02  6.628E-02  2.735E-13  9.586E-11 -4.747E-10  1.129E-02  5.054E+02
  2.000E-02  7.259E-02 -5.075E-13  1.272E-10 -5.278E-10  2.625E-02  5.142E+02
  2.000E-02  7.891E-02 -1.357E-12  1.178E-10 -6.544E-10  7.141E-02  5.237E+02
  2.000E-02  8.522E-02 -3.836E-13  1.075E-10 -7.737E-10  1.979E-01  5.341E+02
  2.000E-02  9.153E-02 -3.082E-13  1.211E-10 -8.502E-10  5.218E-01  5.452E+02
  2.000E-02  9.784E-02 -5.721E-13  1.469E-10 -9.487E-10  1.261E+00  5.571E+02
  2.000E-02  1.042E-01 -1.641E-13  1.323E-10 -1.049E-09  2.709E+00  5.697E+02
  2.000E-02  1.105E-01 -7.381E-14  9.861E-11 -1.132E-09  1.261E+00  5.460E+02
  2.000E-02  1.168E-01 -4.027E-13  1.138E-10 -1.226E-09  5.224E-01  5.231E+02
  2.000E-02  1.231E-01 -3.200E-15  1.276E-10 -1.308E-09  1.988E-01  5.009E+02
  2.000E-02  1.294E-01  5.738E-13  6.056E-11 -1.350E-09  7.261E-02  4.794E+02
  2.000E-02  1.357E-01  8.029E-14  6.451E-12 -1.412E-09  2.771E-02  4.586E+02
  2.000E-02  1.420E-01  4.476E-13  6.239E-11 -1.478E-09  1.278E-02  4.385E+02
  2.000E-02  1.483E-01  1.446E-12  1.032E-10 -1.446E-09  8.022E-03  4.191E+02
  2.000E-02  1.547E-01  5.330E-13  8.214E-12 -1.392E-09  6.611E-03  4.004E+02
  2.000E-02  1.610E-01  2.358E-13 -1.020E-10 -1.411E-09  6.275E-03  3.823E+02
  2.000E-02  1.673E-01  1.089E-12 -1.391E-10 -1.422E-09  6.143E-03  3.649E+02
  2.000E-02  1.736E-01  2.085E-12 -1.000E-10 -1.337E-09  5.867E-03  3.481E+02
  2.000E-02  1.799E-01  2.899E-12 -1.442E-11 -1.151E-09  5.428E-03  3.320E+02
  2.000E-02  1.862E-01  2.474E-12 -1.031E-10 -1.000E-09  5.039E-03  3.164E+02
  2.000E-02  1.925E-01  3.318E-12 -2.761E-10 -8.764E-10  4.775E-03  3.014E+02
  2.000E-02  1.988E-01  2.240E-12 -3.148E-10 -6.876E-10  4.525E-03  2.871E+02
  2.000E-02  2.052E-01  9.199E-13 -2.396E-10 -5.474E-10  4.221E-03  2.732E+02
  2.000E-02  2.115E-01  3.442E-12 -2.357E-10 -3.921E-10  3.903E-03  2.600E+02
  2.000E-02  2.178E-01  4.676E-12 -3.518E-10 -1.084E-10  3.623E-03  2.473E+02
  2.000E-02  2.241E-01  3.477E-12 -3.959E-10  1.628E-10  3.384E-03  2.351E+02
  2.000E-02  2.304E-01  3.419E-12 -3.435E-10  3.610E-10  3.186E-03  2.234E+02
  2.000E-02  2.367E-01  4.435E-12 -2.969E-10  6.030E-10  3.032E-03  2.122E+02
  2.000E-02  2.430E-01  3.177E-12 -3.060E-10  8.641E-10  2.901E-03  2.015E+02
  2.000E-02  2.493E-01  2.673E-12 -2.783E-10  1.095E-09  2.757E-03  1.912E+02
  2.000E-02  2.557E-01  2.577E-12 -2.964E-10  1.353E-09  2.610E-03  1.814E+02
  2.000E-02  2.620E-01  5.308E-13 -4.655E-10  1.434E-09  2.424E-03  1.721E+02
  2.000E-02  2.683E-01  6.758E-12 -2.955E-10  1.516E-09  2.217E-03  1.631E+02
  2.000E-02  2.746E-01  1.011E-11  4.070E-12  1.955E-09  2.095E-03  1.546E+02
  2.000E-02  2.809E-01  3.677E-12 -4.145E-11  2.363E-09  1.999E-03  1.465E+02
  2.000E-02  2.872E-01 -2.154E-12 -2.549E-10  2.447E-09  1.864E-03  1.388E+02
  2.000E-02  2.935E-01 -2.045E-12 -3.031E-10  2.414E-09  1.694E-03  1.314E+02
  2.000E-02  2.998E-01  3.006E-12 -1.610E-10  2.554E-09  1.551E-03  1.244E+02
  2.000E-02  3.062E-01  4.581E-12 -7.766E-11  2.868E-09  1.455E-03  1.177E+02
  2.000E-02  3.125E-01  5.909E-13 -1.368E-10  3.010E-09  1.387E-03  1.114E+02
  2.000E-02  3.188E-01  2.221E-12 -1.298E-10  3.051E-09  1.361E-03  1.054E+02
  2.000E-02  3.251E-01  6.049E-12 -6.796E-11  3.403E-09  1.362E-03  9.976E+01
  2.000E-02  3.314E-01 -6.351E-13 -1.579E-10  3.648E-09  1.300E-03  9.439E+01
  2.000E-02  3.377E-01 -1.453E-12 -1.471E-10  3.486E-09  1.186E-03  8.930E+01
  2.000E-02  3.440E-01  5.729E-12 -6.894E-11  3.544E-09  1.110E-03  8.450E+01
  2.000E-02  3.503E-01  5.398E-12 -4.306E-11  3.897E-09  1.093E-03  7.996E+01
  2.000E-02  3.567E-01  5.591E-13  2.245E-11  4.123E-09  1.071E-03  7.569E+01
  2.000E-02  3.630E-01 -4.104E-12 -1.339E-10  4.006E-09  1.011E-03  7.166E+01
  2.000E-02  3.693E-01 -4.430E-13 -2.695E-10  3.730E-09  9.415E-04  6.788E+01
  2.000E-02  3.756E-01  7.807E-12 -1.328E-10  3.778E-09  8.896E-04  6.433E+01
  2.000E-02  3.819E-01  8.781E-12 -3.456E-11  4.083E-09  8.457E-04  6.101E+01
  2.000E-02  3.882E-01  3.935E-12  3.804E-11  4.271E-09  7.902E-04  5.790E+01
  2.000E-02  3.945E-01 -4.575E-12  4.045E-11  4.069E-09  7.116E-04  5.499E+01
  2.000E-02  4.008E-01 -3.430E-12  2.793E-14  3.674E-09  6.228E-04  5.229E+01
  2.000E-02  4.072E-01  4.918E-12 -1.270E-11  3.660E-09  5.566E-04  4.979E+01
  2.000E-02  4.135E-01  5.620E-12 -2.289E-11  3.821E-09  5.113E-04  4.747E+01
  2.000E-02  4.198E-01  4.722E-12  4.029E-11  3.834E-09  4.745E-04  4.533E+01
  2.000E-02  4.261E-01  3.088E-12  8.120E-11  3.902E-09  4.459E-04  4.337E+01
  2.000E-02  4.324E-01 -1.912E-12  3.029E-11  3.923E-09  4.199E-04  4.158E+01
  2.000E-02  4.387E-01 -2.377E-12 -9.613E-11  3.750E-09  3.927E-04  3.996E+01
  2.000E-02  4.450E-01  4.287E-12 -3.044E-10  3.733E-09  3.725E-04  3.850E+01
  2.000E-02  4.513E-01  6.536E-12 -4.520E-10  4.016E-09  3.612E-04  3.719E+01
  2.000E-02  4.577E-01  2.313E-12 -3.941E-10  4.263E-09  3.527E-04  3.604E+01
  2.000E-02  4.640E-01  1.522E-12 -3.043E-10  4.388E-09  3.484E-04  3.504E+01
  2.000E-02  4.703E-01  4.739E-12 -4.807E-10  4.561E-09  3.473E-04  3.419E+01
  2.000E-02  4.766E-01  7.515E-12 -7.867E-10  4.789E-09  3.454E-04  3.348E+01
  2.000E-02  4.829E-01  1.100E-11 -7.986E-10  5.217E-09  3.497E-04  3.292E+01
  2.000E-02  4.892E-01  7.294E-12 -6.803E-10  5.820E-09  3.631E-04  3.250E+01
  2.000E-02  4.955E-01  6.576E-13 -8.699E-10  6.205E-09  3.758E-04  3.221E+01
  2.000E-02  5.018E-01  3.989E-12 -1.098E-09  6.566E-09  3.822E-04  3.207E+01
  2.000E-02  5.050E-01  0.000E+00 -1.098E-09  6.566E-09  3.822E-04  3.207E+01
  2.800E-02  0.000E+00  1.285E-11  0.000E+00  0.000E+00  3.619E-03  4.611E+02
  2.800E-02  3.156E-03  2.294E-12 -3.079E-11  4.292E-10  3.619E-03  4.611E+02
  2.800E-02  9.469E-03 -1.502E-12  2.481E-11  1.825E-10  3.510E-03  4.619E+02
  2.800E-02  1.578E-02 -1.345E-12  5.288E-11 -2.131E-11  3.546E-03  4.636E+02
  2.800E-02  2.209E-02  4.394E-13  7.068E-11 -1.339E-10  3.779E-03  4.660E+02
  2.800E-02  2.841E-02  1.701E-12  5.692E-11 -1.357E-10  3.961E-03  4.692E+02
  2.800E-02  3.472E-02  1.288E-12  5.204E-11 -1.165E-10  4.106E-03  4.732E+02
  2.800E-02  4.103E-02 -8.712E-13  1.021E-10 -1.870E-10  4.347E-03  4.781E+02
  2.800E-02  4.734E-02 -1.408E-12  1.603E-10 -3.334E-10  4.707E-03  4.837E+02
  2.800E-02  5.366E-02 -4.682E-13  1.518E-10 -4.512E-10  5.331E-03  4.901E+02
  2.800E-02  5.997E-02  6.052E-14  1.472E-10 -5.220E-10  6.929E-03  4.973E+02
  2.800E-02  6.628E-02 -2.074E-13  2.032E-10 -5.913E-10  1.175E-02  5.053E+02
  2.800E-02  7.259E-02 -9.669E-13  2.276E-10 -7.121E-10  2.680E-02  5.141E+02
  2.800E-02  7.891E-02 -7.654E-13  2.196E-10 -8.681E-10  7.198E-02  5.237E+02
  2.800E-02  8.522E-02  3.872E-14  2.337E-10 -9.808E-10  1.985E-01  5.341E+02
  2.800E-02  9.153E-02 -2.717E-13  2.463E-10 -1.068E-09  5.225E-01  5.452E+02
  2.800E-02  9.784E-02 -1.044E-12  2.548E-10 -1.204E-09  1.261E+00  5.571E+02
  2.800E-02  1.042E-01 -3.658E-13  2.588E-10 -1.353E-09  2.710E+00  5.697E+02
  2.800E-02  1.105E-01  6.612E-13  2.415E-10 -1.437E-09  1.262E+00  5.460E+02
  2.800E-02  1.168E-01 -2.236E-13  2.199E-10 -1.514E-09  5.233E-01  5.231E+02
  2.800E-02  1.231E-01 -9.739E-13  2.141E-10 -1.654E-09  1.996E-01  5.009E+02
  2.800E-02  1.294E-01  9.896E-13  1.878E-10 -1.754E-09  7.335E-02  4.794E+02
  2.800E-02  1.357E-01  2.309E-12  1.303E-10 -1.740E-09  2.834E-02  4.586E+02
  2.800E-02  1.420E-01  5.094E-13  1.042E-10 -1.729E-09  1.337E-02  4.385E+02
  2.800E-02  1.483E-01 -7.739E-13  7.753E-11 -1.793E-09  8.647E-03  4.191E+02
  2.800E-02  1.547E-01  8.943E-13 -6.089E-12 -1.826E-09  7.212E-03  4.004E+02
  2.800E-02  1.610E-01  2.163E-12 -7.334E-11 -1.781E-09  6.755E-03  3.823E+02
  2.800E-02  1.673E-01  2.534E-12 -1.191E-10 -1.687E-09  6.518E-03  3.649E+02
  2.800E-02  1.736E-01  3.118E-12 -1.724E-10 -1.487E-09  6.245E-03  3.481E+02
  2.800E-02  1.799E-01 -5.812E-14 -1.987E-10 -1.291E-09  5.945E-03  3.319E+02
  2.800E-02  1.862E-01 -2.311E-12 -2.384E-10 -1.275E-09  5.698E-03  3.164E+02
  2.800E-02  1.925E-01  1.343E-12 -3.148E-10 -1.199E-09  5.434E-03  3.014E+02
  2.800E-02  1.988E-01  4.099E-12 -4.320E-10 -8.724E-10  5.072E-03  2.870E+02
  2.800E-02  2.052E-01  1.612E-12 -5.146E-10 -5.673E-10  4.659E-03  2.732E+02
  2.800E-02  2.115E-01  1.470E-12 -4.907E-10 -3.930E-10  4.289E-03  2.600E+02
  2.800E-02  2.178E-01  4.517E-12 -4.767E-10 -1.062E-10  3.969E-03  2.472E+02
  2.800E-02  2.241E-01  4.056E-12 -5.187E-10  2.833E-10  3.692E-03  2.350E+02
  2.800E-02  2.304E-01  1.539E-12 -5.307E-10  5.708E-10  3.473E-03  2.233E+02
  2.800E-02  2.367E-01  1.560E-12 -5.011E-10  7.817E-10  3.291E-03  2.121E+02
  2.800E-02  2.430E-01  3.512E-12 -5.110E-10  1.071E-09  3.125E-03  2.014E+02
  2.800E-02  2.493E-01  2.644E-12 -5.249E-10  1.388E-09  2.972E-03  1.912E+02
  2.800E-02  2.557E-01  2.327E-12 -5.821E-10  1.634E-09  2.854E-03  1.814E+02
  2.800E-02  2.620E-01  6.400E-12 -6.302E-10  2.006E-09  2.764E-03  1.720E+02
  2.800E-02  2.683E-01  3.291E-12 -3.451E-10  2.443E-09  2.611E-03  1.631E+02
  2.800E-02  2.746E-01 -3.153E-12 -1.098E-10  2.574E-09  2.381E-03  1.546E+02
  2.800E-02  2.809E-01 -1.078E-12 -3.082E-10  2.550E-09  2.138E-03  1.465E+02
  2.800E-02  2.872E-01  5.770E-12 -5.974E-10  2.792E-09  1.960E-03  1.387E+02
  2.800E-02  2.935E-01  6.857E-12 -5.996E-10  3.244E-09  1.829E-03  1.314E+02
  2.800E-02  2.998E-01  2.330E-12 -3.649E-10  3.549E-09  1.708E-03  1.244E+02
  2.800E-02  3.062E-01  5.020E-13 -2.504E-10  3.636E-09  1.596E-03  1.177E+02
  2.800E-02  3.125E-01  4.121E-12 -3.495E-10  3.786E-09  1.522E-03  1.114E+02
  2.800E-02  3.188E-01  5.930E-12 -3.171E-10  4.128E-09  1.495E-03  1.054E+02
  2.800E-02  3.251E-01  2.405E-12 -1.494E-10  4.389E-09  1.464E-03  9.975E+01
  2.800E-02  3.314E-01  7.023E-13 -2.557E-10  4.399E-09  1.383E-03  9.438E+01
  2.800E-02  3.377E-01  4.763E-12 -3.477E-10  4.461E-09  1.295E-03  8.929E+01