VARIABLES="XP","YP","P","U","V","TS","TF"
ZONE T="Zone 001"I=    82 J=    22 F=POINT
  0.000E+00  0.000E+00  1.019E+05  0.000E+00  0.000E+00  7.821E-01  7.821E-01
  0.000E+00  3.156E-03  1.019E+05  0.000E+00  0.000E+00  7.821E-01  7.821E-01
  0.000E+00  9.469E-03  1.019E+05  0.000E+00  0.000E+00  7.821E-01  7.821E-01
  0.000E+00  1.578E-02  1.019E+05  0.000E+00  0.000E+00  7.821E-01  7.821E-01
  0.000E+00  2.209E-02  1.019E+05  0.000E+00  0.000E+00  7.821E-01  7.821E-01
  0.000E+00  2.841E-02  1.019E+05  0.000E+00  0.000E+00  7.821E-01  7.821E-01
  0.000E+00  3.472E-02  1.019E+05  0.000E+00  0.000E+00  7.822E-01  7.822E-01
  0.000E+00  4.103E-02  1.019E+05  0.000E+00  0.000E+00  7.822E-01  7.822E-01
  0.000E+00  4.734E-02  1.019E+05  0.000E+00  0.000E+00  7.824E-01  7.824E-01
  0.000E+00  5.366E-02  1.019E+05  0.000E+00  0.000E+00  7.826E-01  7.826E-01
  0.000E+00  5.997E-02  1.018E+05  0.000E+00  0.000E+00  7.829E-01  7.829E-01
  0.000E+00  6.628E-02  1.018E+05  0.000E+00  0.000E+00  7.835E-01  7.835E-01
  0.000E+00  7.259E-02  1.018E+05  0.000E+00  0.000E+00  7.845E-01  7.845E-01
  0.000E+00  7.891E-02  1.018E+05  0.000E+00  0.000E+00  7.861E-01  7.860E-01
  0.000E+00  8.522E-02  1.018E+05  0.000E+00  0.000E+00  7.885E-01  7.884E-01
  0.000E+00  9.153E-02  1.018E+05  0.000E+00  0.000E+00  7.922E-01  7.921E-01
  0.000E+00  9.784E-02  1.018E+05  0.000E+00  0.000E+00  7.978E-01  7.976E-01
  0.000E+00  1.042E-01  1.018E+05  0.000E+00  0.000E+00  8.061E-01  8.057E-01
  0.000E+00  1.105E-01  1.018E+05  0.000E+00  0.000E+00  8.181E-01  8.176E-01
  0.000E+00  1.168E-01  1.018E+05  0.000E+00  0.000E+00  8.351E-01  8.343E-01
  0.000E+00  1.231E-01  1.018E+05  0.000E+00  0.000E+00  8.587E-01  8.576E-01
  0.000E+00  1.294E-01  1.018E+05  0.000E+00  0.000E+00  8.907E-01  8.892E-01
  0.000E+00  1.357E-01  1.018E+05  0.000E+00  0.000E+00  9.332E-01  9.313E-01
  0.000E+00  1.420E-01  1.017E+05  0.000E+00  0.000E+00  9.884E-01  9.859E-01
  0.000E+00  1.483E-01  1.017E+05  0.000E+00  0.000E+00  1.058E+00  1.055E+00
  0.000E+00  1.547E-01  1.017E+05  0.000E+00  0.000E+00  1.145E+00  1.141E+00
  0.000E+00  1.610E-01  1.017E+05  0.000E+00  0.000E+00  1.250E+00  1.246E+00
  0.000E+00  1.673E-01  1.017E+05  0.000E+00  0.000E+00  1.375E+00  1.369E+00
  0.000E+00  1.736E-01  1.017E+05  0.000E+00  0.000E+00  1.518E+00  1.511E+00
  0.000E+00  1.799E-01  1.017E+05  0.000E+00  0.000E+00  1.679E+00  1.672E+00
  0.000E+00  1.862E-01  1.017E+05  0.000E+00  0.000E+00  1.856E+00  1.848E+00
  0.000E+00  1.925E-01  1.017E+05  0.000E+00  0.000E+00  2.045E+00  2.036E+00
  0.000E+00  1.988E-01  1.017E+05  0.000E+00  0.000E+00  2.242E+00  2.232E+00
  0.000E+00  2.052E-01  1.017E+05  0.000E+00  0.000E+00  2.440E+00  2.431E+00
  0.000E+00  2.115E-01  1.017E+05  0.000E+00  0.000E+00  2.634E+00  2.625E+00
  0.000E+00  2.178E-01  1.017E+05  0.000E+00  0.000E+00  2.816E+00  2.808E+00
  0.000E+00  2.241E-01  1.017E+05  0.000E+00  0.000E+00  2.981E+00  2.973E+00
  0.000E+00  2.304E-01  1.016E+05  0.000E+00  0.000E+00  3.122E+00  3.115E+00
  0.000E+00  2.367E-01  1.016E+05  0.000E+00  0.000E+00  3.234E+00  3.229E+00
  0.000E+00  2.430E-01  1.016E+05  0.000E+00  0.000E+00  3.313E+00  3.309E+00
  0.000E+00  2.493E-01  1.016E+05  0.000E+00  0.000E+00  3.356E+00  3.354E+00
  0.000E+00  2.557E-01  1.016E+05  0.000E+00  0.000E+00  3.362E+00  3.361E+00
  0.000E+00  2.620E-01  1.016E+05  0.000E+00  0.000E+00  3.331E+00  3.332E+00
  0.000E+00  2.683E-01  1.016E+05  0.000E+00  0.000E+00  3.265E+00  3.268E+00
  0.000E+00  2.746E-01  1.016E+05  0.000E+00  0.000E+00  3.167E+00  3.172E+00
  0.000E+00  2.809E-01  1.016E+05  0.000E+00  0.000E+00  3.041E+00  3.047E+00
  0.000E+00  2.872E-01  1.016E+05  0.000E+00  0.000E+00  2.892E+00  2.899E+00
  0.000E+00  2.935E-01  1.016E+05  0.000E+00  0.000E+00  2.724E+00  2.732E+00
  0.000E+00  2.998E-01  1.016E+05  0.000E+00  0.000E+00  2.544E+00  2.552E+00
  0.000E+00  3.062E-01  1.016E+05  0.000E+00  0.000E+00  2.356E+00  2.365E+00
  0.000E+00  3.125E-01  1.015E+05  0.000E+00  0.000E+00  2.165E+00  2.174E+00
  0.000E+00  3.188E-01  1.015E+05  0.000E+00  0.000E+00  1.975E+00  1.984E+00
  0.000E+00  3.251E-01  1.015E+05  0.000E+00  0.000E+00  1.790E+00  1.799E+00
  0.000E+00  3.314E-01  1.015E+05  0.000E+00  0.000E+00  1.614E+00  1.622E+00
  0.000E+00  3.377E-01  1.015E+05  0.000E+00  0.000E+00  1.448E+00  1.456E+00
  0.000E+00  3.440E-01  1.015E+05  0.000E+00  0.000E+00  1.294E+00  1.301E+00
  0.000E+00  3.503E-01  1.015E+05  0.000E+00  0.000E+00  1.153E+00  1.160E+00
  0.000E+00  3.567E-01  1.015E+05  0.000E+00  0.000E+00  1.026E+00  1.032E+00
  0.000E+00  3.630E-01  1.015E+05  0.000E+00  0.000E+00  9.123E-01  9.176E-01
  0.000E+00  3.693E-01  1.015E+05  0.000E+00  0.000E+00  8.116E-01  8.164E-01
  0.000E+00  3.756E-01  1.015E+05  0.000E+00  0.000E+00  7.234E-01  7.276E-01
  0.000E+00  3.819E-01  1.015E+05  0.000E+00  0.000E+00  6.467E-01  6.503E-01
  0.000E+00  3.882E-01  1.015E+05  0.000E+00  0.000E+00  5.805E-01  5.836E-01
  0.000E+00  3.945E-01  1.015E+05  0.000E+00  0.000E+00  5.237E-01  5.264E-01
  0.000E+00  4.008E-01  1.014E+05  0.000E+00  0.000E+00  4.752E-01  4.775E-01
  0.000E+00  4.072E-01  1.014E+05  0.000E+00  0.000E+00  4.340E-01  4.360E-01
  0.000E+00  4.135E-01  1.014E+05  0.000E+00  0.000E+00  3.991E-01  4.007E-01
  0.000E+00  4.198E-01  1.014E+05  0.000E+00  0.000E+00  3.695E-01  3.709E-01
  0.000E+00  4.261E-01  1.014E+05  0.000E+00  0.000E+00  3.443E-01  3.455E-01
  0.000E+00  4.324E-01  1.014E+05  0.000E+00  0.000E+00  3.229E-01  3.240E-01
  0.000E+00  4.387E-01  1.014E+05  0.000E+00  0.000E+00  3.046E-01  3.055E-01
  0.000E+00  4.450E-01  1.014E+05  0.000E+00  0.000E+00  2.888E-01  2.896E-01
  0.000E+00  4.513E-01  1.014E+05  0.000E+00  0.000E+00  2.751E-01  2.758E-01
  0.000E+00  4.577E-01  1.014E+05  0.000E+00  0.000E+00  2.630E-01  2.636E-01
  0.000E+00  4.640E-01  1.014E+05  0.000E+00  0.000E+00  2.522E-01  2.528E-01
  0.000E+00  4.703E-01  1.014E+05  0.000E+00  0.000E+00  2.425E-01  2.430E-01
  0.000E+00  4.766E-01  1.014E+05  0.000E+00  0.000E+00  2.336E-01  2.340E-01
  0.000E+00  4.829E-01  1.014E+05  0.000E+00  0.000E+00  2.254E-01  2.258E-01
  0.000E+00  4.892E-01  1.013E+05  0.000E+00  0.000E+00  2.180E-01  2.183E-01
  0.000E+00  4.955E-01  1.013E+05  0.000E+00  0.000E+00  2.115E-01  2.118E-01
  0.000E+00  5.018E-01  1.013E+05  0.000E+00  0.000E+00  2.069E-01  2.071E-01
  0.000E+00  5.050E-01  1.013E+05  0.000E+00  0.000E+00  2.069E-01  2.071E-01
  4.000E-03  0.000E+00  1.019E+05  8.159E-07  6.500E-02  7.821E-01  7.821E-01
  4.000E-03  3.156E-03  1.019E+05  8.159E-07  6.498E-02  7.821E-01  7.821E-01
  4.000E-03  9.469E-03  1.019E+05  3.451E-07  6.499E-02  7.821E-01  7.821E-01
  4.000E-03  1.578E-02  1.019E+05  2.431E-07  6.500E-02  7.821E-01  7.821E-01
  4.000E-03  2.209E-02  1.019E+05  2.384E-07  6.499E-02  7.821E-01  7.821E-01
  4.000E-03  2.841E-02  1.019E+05  7.592E-07  6.499E-02  7.821E-01  7.821E-01
  4.000E-03  3.472E-02  1.019E+05  1.433E-06  6.500E-02  7.822E-01  7.822E-01
  4.000E-03  4.103E-02  1.019E+05  7.270E-07  6.500E-02  7.822E-01  7.822E-01
  4.000E-03  4.734E-02  1.019E+05  1.560E-07  6.500E-02  7.824E-01  7.824E-01
  4.000E-03  5.366E-02  1.019E+05  7.211E-08  6.499E-02  7.826E-01  7.826E-01
  4.000E-03  5.997E-02  1.018E+05  1.917E-08  6.499E-02  7.829E-01  7.829E-01
  4.000E-03  6.628E-02  1.018E+05  6.982E-09  6.499E-02  7.835E-01  7.835E-01
  4.000E-03  7.259E-02  1.018E+05  2.514E-09  6.499E-02  7.845E-01  7.845E-01
  4.000E-03  7.891E-02  1.018E+05  1.411E-09  6.499E-02  7.861E-01  7.860E-01
  4.000E-03  8.522E-02  1.018E+05  1.049E-09  6.499E-02  7.885E-01  7.884E-01
  4.000E-03  9.153E-02  1.018E+05  9.285E-10  6.500E-02  7.922E-01  7.921E-01
  4.000E-03  9.784E-02  1.018E+05  8.523E-10  6.500E-02  7.978E-01  7.976E-01
  4.000E-03  1.042E-01  1.018E+05  7.076E-10  6.500E-02  8.061E-01  8.057E-01
  4.000E-03  1.105E-01  1.018E+05  5.971E-10  6.499E-02  8.181E-01  8.176E-01
  4.000E-03  1.168E-01  1.018E+05  5.126E-10  6.499E-02  8.351E-01  8.343E-01
  4.000E-03  1.231E-01  1.018E+05  3.850E-10  6.499E-02  8.587E-01  8.576E-01
  4.000E-03  1.294E-01  1.018E+05  3.209E-10  6.499E-02  8.907E-01  8.892E-01
  4.000E-03  1.357E-01  1.018E+05  3.256E-10  6.499E-02  9.332E-01  9.313E-01
  4.000E-03  1.420E-01  1.017E+05  2.826E-10  6.499E-02  9.884E-01  9.859E-01
  4.000E-03  1.483E-01  1.017E+05  2.073E-10  6.499E-02  1.058E+00  1.055E+00
  4.000E-03  1.547E-01  1.017E+05  1.563E-10  6.499E-02  1.145E+00  1.141E+00
  4.000E-03  1.610E-01  1.017E+05  1.212E-10  6.500E-02  1.250E+00  1.246E+00
  4.000E-03  1.673E-01  1.017E+05  7.174E-11  6.500E-02  1.375E+00  1.369E+00
  4.000E-03  1.736E-01  1.017E+05  2.528E-11  6.500E-02  1.518E+00  1.511E+00
  4.000E-03  1.799E-01  1.017E+05 -1.034E-11  6.499E-02  1.679E+00  1.672E+00
  4.000E-03  1.862E-01  1.017E+05  1.454E-11  6.499E-02  1.856E+00  1.848E+00
  4.000E-03  1.925E-01  1.017E+05  4.645E-11  6.499E-02  2.045E+00  2.036E+00
  4.000E-03  1.988E-01  1.017E+05  2.657E-11  6.499E-02  2.242E+00  2.232E+00
  4.000E-03  2.052E-01  1.017E+05  5.571E-12  6.499E-02  2.440E+00  2.431E+00
  4.000E-03  2.115E-01  1.017E+05  2.495E-11  6.499E-02  2.634E+00  2.625E+00
  4.000E-03  2.178E-01  1.017E+05  4.386E-11  6.499E-02  2.816E+00  2.808E+00
  4.000E-03  2.241E-01  1.017E+05  3.136E-13  6.499E-02  2.981E+00  2.973E+00
  4.000E-03  2.304E-01  1.016E+05  3.068E-11  6.500E-02  3.122E+00  3.115E+00
  4.000E-03  2.367E-01  1.016E+05  3.696E-11  6.500E-02  3.234E+00  3.229E+00
  4.000E-03  2.430E-01  1.016E+05 -1.289E-11  6.500E-02  3.313E+00  3.309E+00
  4.000E-03  2.493E-01  1.016E+05 -4.299E-11  6.499E-02  3.356E+00  3.354E+00
  4.000E-03  2.557E-01  1.016E+05 -1.850E-11  6.499E-02  3.362E+00  3.361E+00
  4.000E-03  2.620E-01  1.016E+05  1.241E-11  6.499E-02  3.331E+00  3.332E+00
  4.000E-03  2.683E-01  1.016E+05 -3.699E-12  6.499E-02  3.265E+00  3.268E+00
  4.000E-03  2.746E-01  1.016E+05  1.013E-12  6.499E-02  3.167E+00  3.172E+00
  4.000E-03  2.809E-01  1.016E+05 -1.306E-11  6.499E-02  3.041E+00  3.047E+00
  4.000E-03  2.872E-01  1.016E+05  3.576E-13  6.500E-02  2.892E+00  2.899E+00
  4.000E-03  2.935E-01  1.016E+05  3.114E-11  6.500E-02  2.724E+00  2.732E+00
  4.000E-03  2.998E-01  1.016E+05  8.623E-12  6.500E-02  2.544E+00  2.552E+00
  4.000E-03  3.062E-01  1.016E+05 -3.487E-11  6.499E-02  2.356E+00  2.365E+00
  4.000E-03  3.125E-01  1.015E+05 -2.436E-12  6.499E-02  2.165E+00  2.174E+00
  4.000E-03  3.188E-01  1.015E+05  2.698E-11  6.499E-02  1.975E+00  1.984E+00
  4.000E-03  3.251E-01  1.015E+05 -3.500E-12  6.499E-02  1.790E+00  1.799E+00
  4.000E-03  3.314E-01  1.015E+05 -3.172E-11  6.499E-02  1.614E+00  1.622E+00
  4.000E-03  3.377E-01  1.015E+05 -8.220E-12  6.499E-02  1.448E+00  1.456E+00
  4.000E-03  3.440E-01  1.015E+05  1.983E-11  6.499E-02  1.294E+00  1.301E+00
  4.000E-03  3.503E-01  1.015E+05 -1.871E-11  6.499E-02  1.153E+00  1.160E+00
  4.000E-03  3.567E-01  1.015E+05 -6.175E-12  6.500E-02  1.026E+00  1.032E+00
  4.000E-03  3.630E-01  1.015E+05  2.768E-11  6.500E-02  9.123E-01  9.176E-01
  4.000E-03  3.693E-01  1.015E+05  1.248E-11  6.500E-02  8.116E-01  8.164E-01
  4.000E-03  3.756E-01  1.015E+05 -2.914E-11  6.499E-02  7.234E-01  7.276E-01
  4.000E-03  3.819E-01  1.015E+05 -1.545E-12  6.499E-02  6.467E-01  6.503E-01
  4.000E-03  3.882E-01  1.015E+05  3.054E-11  6.499E-02  5.805E-01  5.836E-01
  4.000E-03  3.945E-01  1.015E+05  5.594E-12  6.499E-02  5.237E-01  5.264E-01
  4.000E-03  4.008E-01  1.014E+05 -2.229E-11  6.499E-02  4.752E-01  4.775E-01
  4.000E-03  4.072E-01  1.014E+05 -5.532E-12  6.499E-02  4.340E-01  4.360E-01
  4.000E-03  4.135E-01  1.014E+05  1.639E-11  6.499E-02  3.991E-01  4.007E-01
  4.000E-03  4.198E-01  1.014E+05 -2.164E-11  6.499E-02  3.695E-01  3.709E-01
  4.000E-03  4.261E-01  1.014E+05  1.610E-11  6.500E-02  3.443E-01  3.455E-01
  4.000E-03  4.324E-01  1.014E+05  1.275E-11  6.500E-02  3.229E-01  3.240E-01
  4.000E-03  4.387E-01  1.014E+05 -5.610E-12  6.500E-02  3.046E-01  3.055E-01
  4.000E-03  4.450E-01  1.014E+05 -8.897E-12  6.499E-02  2.888E-01  2.896E-01
  4.000E-03  4.513E-01  1.014E+05 -6.538E-12  6.499E-02  2.751E-01  2.758E-01
  4.000E-03  4.577E-01  1.014E+05  1.731E-11  6.499E-02  2.630E-01  2.636E-01
  4.000E-03  4.640E-01  1.014E+05 -1.925E-12  6.499E-02  2.522E-01  2.528E-01
  4.000E-03  4.703E-01  1.014E+05  6.721E-12  6.499E-02  2.425E-01  2.430E-01
  4.000E-03  4.766E-01  1.014E+05  1.152E-11  6.499E-02  2.336E-01  2.340E-01
  4.000E-03  4.829E-01  1.014E+05  9.856E-12  6.499E-02  2.254E-01  2.258E-01
  4.000E-03  4.892E-01  1.013E+05 -6.445E-12  6.499E-02  2.180E-01  2.183E-01
  4.000E-03  4.955E-01  1.013E+05 -2.137E-11  6.499E-02  2.115E-01  2.118E-01
  4.000E-03  5.018E-01  1.013E+05 -3.519E-11  6.500E-02  2.069E-01  2.071E-01
  4.000E-03  5.050E-01  1.013E+05 -3.519E-11  6.500E-02  2.069E-01  2.071E-01
  1.200E-02  0.000E+00  1.019E+05  1.109E-06  6.500E-02  7.812E-01  7.812E-01
  1.200E-02  3.156E-03  1.019E+05  1.109E-06  6.498E-02  7.812E-01  7.812E-01
  1.200E-02  9.469E-03  1.019E+05  4.972E-07  6.500E-02  7.812E-01  7.812E-01
  1.200E-02  1.578E-02  1.019E+05  2.964E-07  6.500E-02  7.812E-01  7.812E-01
  1.200E-02  2.209E-02  1.019E+05 -4.991E-07  6.500E-02  7.812E-01  7.812E-01
  1.200E-02  2.841E-02  1.019E+05  2.598E-06  6.500E-02  7.812E-01  7.812E-01
  1.200E-02  3.472E-02  1.019E+05  8.146E-06  6.500E-02  7.813E-01  7.812E-01
  1.200E-02  4.103E-02  1.019E+05  2.552E-06  6.501E-02  7.813E-01  7.813E-01
  1.200E-02  4.734E-02  1.019E+05 -6.636E-07  6.500E-02  7.814E-01  7.814E-01
  1.200E-02  5.366E-02  1.019E+05 -2.332E-08  6.500E-02  7.817E-01  7.816E-01
  1.200E-02  5.997E-02  1.018E+05 -4.738E-08  6.500E-02  7.820E-01  7.820E-01
  1.200E-02  6.628E-02  1.018E+05 -1.260E-08  6.500E-02  7.826E-01  7.826E-01
  1.200E-02  7.259E-02  1.018E+05 -4.107E-09  6.500E-02  7.836E-01  7.835E-01
  1.200E-02  7.891E-02  1.018E+05  4.822E-10  6.500E-02  7.851E-01  7.851E-01
  1.200E-02  8.522E-02  1.018E+05  2.027E-09  6.500E-02  7.876E-01  7.874E-01
  1.200E-02  9.153E-02  1.018E+05  2.477E-09  6.500E-02  7.913E-01  7.911E-01
  1.200E-02  9.784E-02  1.018E+05  2.465E-09  6.501E-02  7.969E-01  7.966E-01
  1.200E-02  1.042E-01  1.018E+05  2.209E-09  6.500E-02  8.052E-01  8.048E-01
  1.200E-02  1.105E-01  1.018E+05  1.897E-09  6.500E-02  8.171E-01  8.166E-01
  1.200E-02  1.168E-01  1.018E+05  1.605E-09  6.500E-02  8.341E-01  8.333E-01
  1.200E-02  1.231E-01  1.018E+05  1.316E-09  6.500E-02  8.577E-01  8.566E-01
  1.200E-02  1.294E-01  1.018E+05  1.086E-09  6.500E-02  8.897E-01  8.882E-01
  1.200E-02  1.357E-01  1.018E+05  9.087E-10  6.500E-02  9.322E-01  9.303E-01
  1.200E-02  1.420E-01  1.017E+05  6.848E-10  6.500E-02  9.874E-01  9.848E-01
  1.200E-02  1.483E-01  1.017E+05  4.493E-10  6.500E-02  1.057E+00  1.054E+00
  1.200E-02  1.547E-01  1.017E+05  2.916E-10  6.500E-02  1.144E+00  1.140E+00
  1.200E-02  1.610E-01  1.017E+05  1.988E-10  6.500E-02  1.249E+00  1.245E+00
  1.200E-02  1.673E-01  1.017E+05  1.300E-10  6.501E-02  1.374E+00  1.368E+00
  1.200E-02  1.736E-01  1.017E+05  9.924E-11  6.500E-02  1.517E+00  1.510E+00
  1.200E-02  1.799E-01  1.017E+05  1.040E-10  6.500E-02  1.678E+00  1.671E+00
  1.200E-02  1.862E-01  1.017E+05  1.686E-10  6.500E-02  1.855E+00  1.847E+00
  1.200E-02  1.925E-01  1.017E+05  1.985E-10  6.500E-02  2.044E+00  2.035E+00
  1.200E-02  1.988E-01  1.017E+05  1.438E-10  6.500E-02  2.241E+00  2.231E+00
  1.200E-02  2.052E-01  1.017E+05  7.395E-11  6.500E-02  2.439E+00  2.430E+00
  1.200E-02  2.115E-01  1.017E+05  6.716E-11  6.500E-02  2.633E+00  2.624E+00
  1.200E-02  2.178E-01  1.017E+05  7.008E-11  6.500E-02  2.815E+00  2.807E+00
  1.200E-02  2.241E-01  1.017E+05  8.106E-12  6.500E-02  2.980E+00  2.972E+00
  1.200E-02  2.304E-01  1.016E+05  1.268E-11  6.500E-02  3.121E+00  3.115E+00
  1.200E-02  2.367E-01  1.016E+05 -2.062E-11  6.501E-02  3.233E+00  3.228E+00
  1.200E-02  2.430E-01  1.016E+05 -9.981E-11  6.500E-02  3.312E+00  3.308E+00
  1.200E-02  2.493E-01  1.016E+05 -1.120E-10  6.500E-02  3.355E+00  3.353E+00
  1.200E-02  2.557E-01  1.016E+05 -2.431E-11  6.500E-02  3.361E+00  3.361E+00
  1.200E-02  2.620E-01  1.016E+05  6.616E-11  6.500E-02  3.330E+00  3.332E+00
  1.200E-02  2.683E-01  1.016E+05  7.896E-11  6.500E-02  3.265E+00  3.268E+00
  1.200E-02  2.746E-01  1.016E+05  6.635E-11  6.500E-02  3.167E+00  3.171E+00
  1.200E-02  2.809E-01  1.016E+05  1.157E-11  6.500E-02  3.041E+00  3.047E+00
  1.200E-02  2.872E-01  1.016E+05 -1.140E-11  6.500E-02  2.892E+00  2.899E+00
  1.200E-02  2.935E-01  1.016E+05  2.921E-12  6.501E-02  2.724E+00  2.732E+00
  1.200E-02  2.998E-01  1.016E+05 -2.570E-11  6.500E-02  2.544E+00  2.552E+00
  1.200E-02  3.062E-01  1.016E+05 -7.329E-11  6.500E-02  2.356E+00  2.365E+00
  1.200E-02  3.125E-01  1.015E+05 -3.786E-11  6.500E-02  2.165E+00  2.174E+00
  1.200E-02  3.188E-01  1.015E+05 -3.372E-12  6.500E-02  1.975E+00  1.984E+00
  1.200E-02  3.251E-01  1.015E+05 -1.177E-11  6.500E-02  1.791E+00  1.800E+00
  1.200E-02  3.314E-01  1.015E+05 -1.780E-11  6.500E-02  1.615E+00  1.623E+00
  1.200E-02  3.377E-01  1.015E+05  3.017E-11  6.500E-02  1.449E+00  1.457E+00
  1.200E-02  3.440E-01  1.015E+05  6.334E-11  6.500E-02  1.295E+00  1.302E+00
  1.200E-02  3.503E-01  1.015E+05  1.016E-11  6.500E-02  1.154E+00  1.161E+00
  1.200E-02  3.567E-01  1.015E+05  1.143E-12  6.500E-02  1.027E+00  1.033E+00
  1.200E-02  3.630E-01  1.015E+05  1.644E-11  6.501E-02  9.135E-01  9.189E-01
  1.200E-02  3.693E-01  1.015E+05 -9.052E-12  6.500E-02  8.130E-01  8.178E-01
  1.200E-02  3.756E-01  1.015E+05 -4.856E-11  6.500E-02  7.249E-01  7.290E-01
  1.200E-02  3.819E-01  1.015E+05 -1.099E-11  6.500E-02  6.483E-01  6.519E-01
  1.200E-02  3.882E-01  1.015E+05  1.309E-11  6.500E-02  5.822E-01  5.853E-01
  1.200E-02  3.945E-01  1.015E+05 -1.970E-11  6.500E-02  5.255E-01  5.282E-01
  1.200E-02  4.008E-01  1.014E+05 -4.199E-11  6.500E-02  4.771E-01  4.794E-01
  1.200E-02  4.072E-01  1.014E+05  1.527E-11  6.500E-02  4.360E-01  4.379E-01
  1.200E-02  4.135E-01  1.014E+05  7.921E-11  6.500E-02  4.011E-01  4.028E-01
  1.200E-02  4.198E-01  1.014E+05  5.540E-11  6.500E-02  3.715E-01  3.729E-01
  1.200E-02  4.261E-01  1.014E+05  6.935E-11  6.500E-02  3.464E-01  3.476E-01
  1.200E-02  4.324E-01  1.014E+05  2.519E-12  6.501E-02  3.251E-01  3.261E-01
  1.200E-02  4.387E-01  1.014E+05 -7.489E-11  6.500E-02  3.068E-01  3.077E-01
  1.200E-02  4.450E-01  1.014E+05 -8.637E-11  6.500E-02  2.911E-01  2.918E-01
  1.200E-02  4.513E-01  1.014E+05 -3.908E-11  6.500E-02  2.774E-01  2.780E-01
  1.200E-02  4.577E-01  1.014E+05  4.210E-11  6.500E-02  2.653E-01  2.658E-01
  1.200E-02  4.640E-01  1.014E+05  5.876E-11  6.500E-02  2.545E-01  2.550E-01
  1.200E-02  4.703E-01  1.014E+05  5.609E-11  6.500E-02  2.447E-01  2.452E-01
  1.200E-02  4.766E-01  1.014E+05  1.756E-11  6.500E-02  2.358E-01  2.362E-01
  1.200E-02  4.829E-01  1.014E+05 -3.754E-11  6.500E-02  2.276E-01  2.280E-01
  1.200E-02  4.892E-01  1.013E+05 -8.373E-11  6.500E-02  2.201E-01  2.204E-01
  1.200E-02  4.955E-01  1.013E+05 -1.121E-10  6.500E-02  2.135E-01  2.139E-01
  1.200E-02  5.018E-01  1.013E+05 -1.248E-10  6.500E-02  2.089E-01  2.092E-01
  1.200E-02  5.050E-01  1.013E+05 -1.248E-10  6.500E-02  2.089E-01  2.092E-01
  2.000E-02  0.000E+00  1.019E+05  5.386E-07  6.500E-02  7.793E-01  7.793E-01
  2.000E-02  3.156E-03  1.019E+05  5.386E-07  6.498E-02  7.793E-01  7.793E-01
  2.000E-02  9.469E-03  1.019E+05  3.616E-07  6.500E-02  7.793E-01  7.793E-01
  2.000E-02  1.578E-02  1.019E+05  2.741E-07  6.500E-02  7.793E-01  7.793E-01
  2.000E-02  2.209E-02  1.019E+05 -4.735E-07  6.500E-02  7.794E-01  7.794E-01
  2.000E-02  2.841E-02  1.019E+05  2.660E-06  6.501E-02  7.794E-01  7.794E-01
  2.000E-02  3.472E-02  1.019E+05  8.158E-06  6.500E-02  7.794E-01  7.794E-01
  2.000E-02  4.103E-02  1.019E+05  2.610E-06  6.500E-02  7.795E-01  7.795E-01
  2.000E-02  4.734E-02  1.019E+05 -6.335E-07  6.500E-02  7.796E-01  7.796E-01
  2.000E-02  5.366E-02  1.019E+05 -5.815E-11  6.500E-02  7.798E-01  7.798E-01
  2.000E-02  5.997E-02  1.018E+05 -3.267E-08  6.500E-02  7.802E-01  7.801E-01
  2.000E-02  6.628E-02  1.018E+05 -2.601E-09  6.500E-02  7.808E-01  7.807E-01
  2.000E-02  7.259E-02  1.018E+05  2.684E-09  6.500E-02  7.817E-01  7.817E-01
  2.000E-02  7.891E-02  1.018E+05  5.293E-09  6.500E-02  7.833E-01  7.832E-01
  2.000E-02  8.522E-02  1.018E+05  5.617E-09  6.500E-02  7.857E-01  7.856E-01
  2.000E-02  9.153E-02  1.018E+05  5.192E-09  6.500E-02  7.894E-01  7.892E-01
  2.000E-02  9.784E-02  1.018E+05  4.475E-09  6.501E-02  7.950E-01  7.947E-01
  2.000E-02  1.042E-01  1.018E+05  3.748E-09  6.500E-02  8.032E-01  8.029E-01
  2.000E-02  1.105E-01  1.018E+05  3.100E-09  6.500E-02  8.152E-01  8.147E-01
  2.000E-02  1.168E-01  1.018E+05  2.519E-09  6.500E-02  8.322E-01  8.314E-01
  2.000E-02  1.231E-01  1.018E+05  2.049E-09  6.500E-02  8.557E-01  8.546E-01
  2.000E-02  1.294E-01  1.018E+05  1.648E-09  6.500E-02  8.877E-01  8.862E-01
  2.000E-02  1.357E-01  1.018E+05  1.248E-09  6.500E-02  9.302E-01  9.282E-01
  2.000E-02  1.420E-01  1.017E+05  9.035E-10  6.500E-02  9.853E-01  9.828E-01
  2.000E-02  1.483E-01  1.017E+05  6.547E-10  6.500E-02  1.055E+00  1.052E+00
  2.000E-02  1.547E-01  1.017E+05  4.671E-10  6.500E-02  1.142E+00  1.138E+00
  2.000E-02  1.610E-01  1.017E+05  3.546E-10  6.500E-02  1.247E+00  1.242E+00
  2.000E-02  1.673E-01  1.017E+05  3.032E-10  6.501E-02  1.371E+00  1.366E+00
  2.000E-02  1.736E-01  1.017E+05  2.864E-10  6.500E-02  1.515E+00  1.508E+00
  2.000E-02  1.799E-01  1.017E+05  2.750E-10  6.500E-02  1.676E+00  1.669E+00
  2.000E-02  1.862E-01  1.017E+05  2.623E-10  6.500E-02  1.853E+00  1.845E+00
  2.000E-02  1.925E-01  1.017E+05  2.265E-10  6.500E-02  2.042E+00  2.033E+00
  2.000E-02  1.988E-01  1.017E+05  1.780E-10  6.500E-02  2.239E+00  2.229E+00
  2.000E-02  2.052E-01  1.017E+05  1.246E-10  6.500E-02  2.437E+00  2.428E+00
  2.000E-02  2.115E-01  1.017E+05  8.789E-11  6.500E-02  2.631E+00  2.622E+00
  2.000E-02  2.178E-01  1.017E+05  4.857E-11  6.500E-02  2.813E+00  2.805E+00
  2.000E-02  2.241E-01  1.017E+05  4.729E-12  6.500E-02  2.978E+00  2.971E+00
  2.000E-02  2.304E-01  1.016E+05 -3.114E-11  6.500E-02  3.120E+00  3.113E+00
  2.000E-02  2.367E-01  1.016E+05 -5.605E-11  6.501E-02  3.232E+00  3.226E+00
  2.000E-02  2.430E-01  1.016E+05 -5.918E-11  6.500E-02  3.311E+00  3.307E+00
  2.000E-02  2.493E-01  1.016E+05 -2.584E-11  6.500E-02  3.354E+00  3.352E+00
  2.000E-02  2.557E-01  1.016E+05  3.458E-11  6.500E-02  3.360E+00  3.360E+00
  2.000E-02  2.620E-01  1.016E+05  7.297E-11  6.500E-02  3.329E+00  3.331E+00
  2.000E-02  2.683E-01  1.016E+05  7.187E-11  6.500E-02  3.264E+00  3.267E+00
  2.000E-02  2.746E-01  1.016E+05  3.756E-11  6.500E-02  3.166E+00  3.171E+00
  2.000E-02  2.809E-01  1.016E+05 -8.652E-13  6.500E-02  3.041E+00  3.046E+00
  2.000E-02  2.872E-01  1.016E+05 -2.672E-11  6.500E-02  2.892E+00  2.898E+00
  2.000E-02  2.935E-01  1.016E+05 -3.391E-11  6.501E-02  2.724E+00  2.732E+00
  2.000E-02  2.998E-01  1.016E+05 -4.133E-11  6.500E-02  2.544E+00  2.553E+00
  2.000E-02  3.062E-01  1.016E+05 -4.865E-11  6.500E-02  2.356E+00  2.365E+00
  2.000E-02  3.125E-01  1.015E+05 -3.200E-11  6.500E-02  2.166E+00  2.174E+00
  2.000E-02  3.188E-01  1.015E+05 -9.690E-12  6.500E-02  1.976E+00  1.985E+00
  2.000E-02  3.251E-01  1.015E+05  1.453E-11  6.500E-02  1.792E+00  1.801E+00
  2.000E-02  3.314E-01  1.015E+05  2.771E-11  6.500E-02  1.616E+00  1.624E+00
  2.000E-02  3.377E-01  1.015E+05  3.897E-11  6.500E-02  1.450E+00  1.458E+00
  2.000E-02  3.440E-01  1.015E+05  2.907E-11  6.500E-02  1.297E+00  1.304E+00
  2.000E-02  3.503E-01  1.015E+05  4.812E-12  6.500E-02  1.156E+00  1.163E+00
  2.000E-02  3.567E-01  1.015E+05 -1.535E-11  6.500E-02  1.029E+00  1.035E+00
  2.000E-02  3.630E-01  1.015E+05 -2.031E-11  6.501E-02  9.161E-01  9.215E-01
  2.000E-02  3.693E-01  1.015E+05 -1.876E-11  6.500E-02  8.158E-01  8.205E-01
  2.000E-02  3.756E-01  1.015E+05 -1.718E-11  6.500E-02  7.279E-01  7.320E-01
  2.000E-02  3.819E-01  1.015E+05 -7.417E-12  6.500E-02  6.515E-01  6.551E-01
  2.000E-02  3.882E-01  1.015E+05 -8.940E-12  6.500E-02  5.856E-01  5.887E-01
  2.000E-02  3.945E-01  1.015E+05 -8.157E-12  6.500E-02  5.291E-01  5.318E-01
  2.000E-02  4.008E-01  1.014E+05  3.778E-12  6.500E-02  4.808E-01  4.831E-01
  2.000E-02  4.072E-01  1.014E+05  3.997E-11  6.500E-02  4.399E-01  4.418E-01
  2.000E-02  4.135E-01  1.014E+05  6.170E-11  6.500E-02  4.051E-01  4.068E-01
  2.000E-02  4.198E-01  1.014E+05  4.956E-11  6.500E-02  3.757E-01  3.771E-01
  2.000E-02  4.261E-01  1.014E+05  1.244E-11  6.500E-02  3.507E-01  3.519E-01
  2.000E-02  4.324E-01  1.014E+05 -3.770E-11  6.501E-02  3.294E-01  3.304E-01
  2.000E-02  4.387E-01  1.014E+05 -6.339E-11  6.500E-02  3.112E-01  3.121E-01
  2.000E-02  4.450E-01  1.014E+05 -4.318E-11  6.500E-02  2.955E-01  2.962E-01
  2.000E-02  4.513E-01  1.014E+05  1.117E-11  6.500E-02  2.818E-01  2.824E-01
  2.000E-02  4.577E-01  1.014E+05  5.680E-11  6.500E-02  2.697E-01  2.703E-01
  2.000E-02  4.640E-01  1.014E+05  6.735E-11  6.500E-02  2.589E-01  2.594E-01
  2.000E-02  4.703E-01  1.014E+05  3.624E-11  6.500E-02  2.491E-01  2.496E-01
  2.000E-02  4.766E-01  1.014E+05 -1.443E-11  6.500E-02  2.401E-01  2.406E-01
  2.000E-02  4.829E-01  1.014E+05 -6.648E-11  6.500E-02  2.319E-01  2.323E-01
  2.000E-02  4.892E-01  1.013E+05 -9.417E-11  6.500E-02  2.243E-01  2.246E-01
  2.000E-02  4.955E-01  1.013E+05 -1.158E-10  6.500E-02  2.177E-01  2.180E-01
  2.000E-02  5.018E-01  1.013E+05 -1.205E-10  6.500E-02  2.130E-01  2.132E-01
  2.000E-02  5.050E-01  1.013E+05 -1.205E-10  6.500E-02  2.130E-01  2.132E-01
  2.800E-02  0.000E+00  1.019E+05  4.110E-07  6.500E-02  7.766E-01  7.766E-01
  2.800E-02  3.156E-03  1.019E+05  4.110E-07  6.498E-02  7.766E-01  7.766E-01
  2.800E-02  9.469E-03  1.019E+05  3.558E-07  6.500E-02  7.766E-01  7.766E-01
  2.800E-02  1.578E-02  1.019E+05  3.477E-07  6.500E-02  7.766E-01  7.766E-01
  2.800E-02  2.209E-02  1.019E+05  3.357E-07  6.500E-02  7.767E-01  7.766E-01
  2.800E-02  2.841E-02  1.019E+05  9.433E-07  6.501E-02  7.767E-01  7.767E-01
  2.800E-02  3.472E-02  1.019E+05  9.450E-07  6.500E-02  7.767E-01  7.767E-01
  2.800E-02  4.103E-02  1.019E+05  8.753E-07  6.500E-02  7.768E-01  7.768E-01
  2.800E-02  4.734E-02  1.019E+05  1.945E-07  6.500E-02  7.769E-01  7.769E-01
  2.800E-02  5.366E-02  1.019E+05  1.262E-07  6.500E-02  7.771E-01  7.771E-01
  2.800E-02  5.997E-02  1.018E+05  5.405E-08  6.500E-02  7.775E-01  7.774E-01
  2.800E-02  6.628E-02  1.018E+05  3.242E-08  6.500E-02  7.780E-01  7.780E-01
  2.800E-02  7.259E-02  1.018E+05  2.053E-08  6.500E-02  7.790E-01  7.790E-01
  2.800E-02  7.891E-02  1.018E+05  1.460E-08  6.500E-02  7.805E-01  7.805E-01
  2.800E-02  8.522E-02  1.018E+05  1.096E-08  6.500E-02  7.829E-01  7.828E-01
  2.800E-02  9.153E-02  1.018E+05  8.446E-09  6.500E-02  7.866E-01  7.865E-01
  2.800E-02  9.784E-02  1.018E+05  6.561E-09  6.501E-02  7.922E-01  7.920E-01
  2.800E-02  1.042E-01  1.018E+05  5.144E-09  6.500E-02  8.005E-01  8.001E-01
  2.800E-02  1.105E-01  1.018E+05  4.077E-09  6.500E-02  8.124E-01  8.119E-01
  2.800E-02  1.168E-01  1.018E+05  3.227E-09  6.500E-02  8.293E-01  8.286E-01
  2.800E-02  1.231E-01  1.018E+05  2.564E-09  6.500E-02  8.529E-01  8.518E-01
  2.800E-02  1.294E-01  1.018E+05  2.014E-09  6.500E-02  8.848E-01  8.833E-01
  2.800E-02  1.357E-01  1.018E+05  1.523E-09  6.500E-02  9.273E-01  9.253E-01
  2.800E-02  1.420E-01  1.017E+05  1.181E-09  6.500E-02  9.824E-01  9.799E-01
  2.800E-02  1.483E-01  1.017E+05  9.337E-10  6.500E-02  1.052E+00  1.049E+00
  2.800E-02  1.547E-01  1.017E+05  7.215E-10  6.500E-02  1.139E+00  1.135E+00
  2.800E-02  1.610E-01  1.017E+05  5.535E-10  6.500E-02  1.244E+00  1.239E+00
  2.800E-02  1.673E-01  1.017E+05  4.414E-10  6.501E-02  1.368E+00  1.363E+00
  2.800E-02  1.736E-01  1.017E+05  3.777E-10  6.500E-02  1.512E+00  1.505E+00
  2.800E-02  1.799E-01  1.017E+05  3.346E-10  6.500E-02  1.673E+00  1.666E+00
  2.800E-02  1.862E-01  1.017E+05  2.943E-10  6.500E-02  1.850E+00  1.842E+00
  2.800E-02  1.925E-01  1.017E+05  2.340E-10  6.500E-02  2.039E+00  2.030E+00
  2.800E-02  1.988E-01  1.017E+05  1.705E-10  6.500E-02  2.236E+00  2.227E+00
  2.800E-02  2.052E-01  1.017E+05  1.089E-10  6.500E-02  2.434E+00  2.425E+00
  2.800E-02  2.115E-01  1.017E+05  6.879E-11  6.500E-02  2.628E+00  2.619E+00
  2.800E-02  2.178E-01  1.017E+05  3.774E-11  6.500E-02  2.811E+00  2.802E+00
  2.800E-02  2.241E-01  1.017E+05  2.129E-11  6.500E-02  2.976E+00  2.968E+00
  2.800E-02  2.304E-01  1.016E+05  8.271E-12  6.500E-02  3.117E+00  3.111E+00
  2.800E-02  2.367E-01  1.016E+05  2.843E-12  6.501E-02  3.230E+00  3.224E+00
  2.800E-02  2.430E-01  1.016E+05  7.037E-12  6.500E-02  3.309E+00  3.305E+00
  2.800E-02  2.493E-01  1.016E+05  1.898E-11  6.500E-02  3.352E+00  3.350E+00
  2.800E-02  2.557E-01  1.016E+05  3.474E-11  6.500E-02  3.359E+00  3.358E+00
  2.800E-02  2.620E-01  1.016E+05  3.120E-11  6.500E-02  3.328E+00  3.330E+00
  2.800E-02  2.683E-01  1.016E+05  1.543E-11  6.500E-02  3.263E+00  3.266E+00
  2.800E-02  2.746E-01  1.016E+05 -7.565E-12  6.500E-02  3.166E+00  3.170E+00
  2.800E-02  2.809E-01  1.016E+05 -1.517E-11  6.500E-02  3.040E+00  3.046E+00
  2.800E-02  2.872E-01  1.016E+05 -1.694E-11  6.500E-02  2.891E+00  2.898E+00
  2.800E-02  2.935E-01  1.016E+05 -1.421E-11  6.501E-02  2.724E+00  2.732E+00
  2.800E-02  2.998E-01  1.016E+05 -1.337E-11  6.500E-02  2.545E+00  2.553E+00
  2.800E-02  3.062E-01  1.016E+05 -1.643E-11  6.500E-02  2.357E+00  2.366E+00
  2.800E-02  3.125E-01  1.015E+05 -9.100E-12  6.500E-02  2.167E+00  2.176E+00
  2.800E-02  3.188E-01  1.015E+05 -2.907E-12  6.500E-02  1.978E+00  1.987E+00
  2.800E-02  3.251E-01  1.015E+05  6.793E-12  6.500E-02  1.794E+00  1.802E+00
  2.800E-02  3.314E-01  1.015E+05  4.042E-12  6.500E-02  1.618E+00  1.626E+00
  2.800E-02  3.377E-01  1.015E+05 -1.008E-13  6.500E-02  1.453E+00  1.461E+00