VARIABLES="XP","YP","P","U","V","TS","TF"
ZONE T="Zone 001"I=    82 J=    22 F=POINT
  0.000E+00  0.000E+00  1.019E+05  0.000E+00  0.000E+00  7.836E-01  7.836E-01
  0.000E+00  3.156E-03  1.019E+05  0.000E+00  0.000E+00  7.836E-01  7.836E-01
  0.000E+00  9.469E-03  1.019E+05  0.000E+00  0.000E+00  7.836E-01  7.836E-01
  0.000E+00  1.578E-02  1.019E+05  0.000E+00  0.000E+00  7.836E-01  7.836E-01
  0.000E+00  2.209E-02  1.019E+05  0.000E+00  0.000E+00  7.837E-01  7.837E-01
  0.000E+00  2.841E-02  1.019E+05  0.000E+00  0.000E+00  7.837E-01  7.837E-01
  0.000E+00  3.472E-02  1.019E+05  0.000E+00  0.000E+00  7.837E-01  7.837E-01
  0.000E+00  4.103E-02  1.019E+05  0.000E+00  0.000E+00  7.838E-01  7.838E-01
  0.000E+00  4.734E-02  1.019E+05  0.000E+00  0.000E+00  7.840E-01  7.840E-01
  0.000E+00  5.366E-02  1.019E+05  0.000E+00  0.000E+00  7.843E-01  7.843E-01
  0.000E+00  5.997E-02  1.018E+05  0.000E+00  0.000E+00  7.848E-01  7.848E-01
  0.000E+00  6.628E-02  1.018E+05  0.000E+00  0.000E+00  7.857E-01  7.856E-01
  0.000E+00  7.259E-02  1.018E+05  0.000E+00  0.000E+00  7.870E-01  7.870E-01
  0.000E+00  7.891E-02  1.018E+05  0.000E+00  0.000E+00  7.892E-01  7.891E-01
  0.000E+00  8.522E-02  1.018E+05  0.000E+00  0.000E+00  7.926E-01  7.924E-01
  0.000E+00  9.153E-02  1.018E+05  0.000E+00  0.000E+00  7.978E-01  7.975E-01
  0.000E+00  9.784E-02  1.018E+05  0.000E+00  0.000E+00  8.056E-01  8.052E-01
  0.000E+00  1.042E-01  1.018E+05  0.000E+00  0.000E+00  8.170E-01  8.165E-01
  0.000E+00  1.105E-01  1.018E+05  0.000E+00  0.000E+00  8.335E-01  8.328E-01
  0.000E+00  1.168E-01  1.018E+05  0.000E+00  0.000E+00  8.568E-01  8.557E-01
  0.000E+00  1.231E-01  1.018E+05  0.000E+00  0.000E+00  8.888E-01  8.873E-01
  0.000E+00  1.294E-01  1.018E+05  0.000E+00  0.000E+00  9.318E-01  9.298E-01
  0.000E+00  1.357E-01  1.018E+05  0.000E+00  0.000E+00  9.883E-01  9.858E-01
  0.000E+00  1.420E-01  1.017E+05  0.000E+00  0.000E+00  1.061E+00  1.057E+00
  0.000E+00  1.483E-01  1.017E+05  0.000E+00  0.000E+00  1.151E+00  1.147E+00
  0.000E+00  1.547E-01  1.017E+05  0.000E+00  0.000E+00  1.262E+00  1.257E+00
  0.000E+00  1.610E-01  1.017E+05  0.000E+00  0.000E+00  1.393E+00  1.387E+00
  0.000E+00  1.673E-01  1.017E+05  0.000E+00  0.000E+00  1.546E+00  1.539E+00
  0.000E+00  1.736E-01  1.017E+05  0.000E+00  0.000E+00  1.717E+00  1.709E+00
  0.000E+00  1.799E-01  1.017E+05  0.000E+00  0.000E+00  1.906E+00  1.897E+00
  0.000E+00  1.862E-01  1.017E+05  0.000E+00  0.000E+00  2.107E+00  2.098E+00
  0.000E+00  1.925E-01  1.017E+05  0.000E+00  0.000E+00  2.316E+00  2.306E+00
  0.000E+00  1.988E-01  1.017E+05  0.000E+00  0.000E+00  2.526E+00  2.516E+00
  0.000E+00  2.052E-01  1.017E+05  0.000E+00  0.000E+00  2.729E+00  2.719E+00
  0.000E+00  2.115E-01  1.017E+05  0.000E+00  0.000E+00  2.918E+00  2.909E+00
  0.000E+00  2.178E-01  1.017E+05  0.000E+00  0.000E+00  3.087E+00  3.079E+00
  0.000E+00  2.241E-01  1.017E+05  0.000E+00  0.000E+00  3.227E+00  3.221E+00
  0.000E+00  2.304E-01  1.016E+05  0.000E+00  0.000E+00  3.335E+00  3.330E+00
  0.000E+00  2.367E-01  1.016E+05  0.000E+00  0.000E+00  3.406E+00  3.402E+00
  0.000E+00  2.430E-01  1.016E+05  0.000E+00  0.000E+00  3.437E+00  3.435E+00
  0.000E+00  2.493E-01  1.016E+05  0.000E+00  0.000E+00  3.428E+00  3.428E+00
  0.000E+00  2.557E-01  1.016E+05  0.000E+00  0.000E+00  3.379E+00  3.381E+00
  0.000E+00  2.620E-01  1.016E+05  0.000E+00  0.000E+00  3.294E+00  3.298E+00
  0.000E+00  2.683E-01  1.016E+05  0.000E+00  0.000E+00  3.177E+00  3.182E+00
  0.000E+00  2.746E-01  1.016E+05  0.000E+00  0.000E+00  3.032E+00  3.038E+00
  0.000E+00  2.809E-01  1.016E+05  0.000E+00  0.000E+00  2.864E+00  2.872E+00
  0.000E+00  2.872E-01  1.016E+05  0.000E+00  0.000E+00  2.680E+00  2.688E+00
  0.000E+00  2.935E-01  1.016E+05  0.000E+00  0.000E+00  2.485E+00  2.494E+00
  0.000E+00  2.998E-01  1.016E+05  0.000E+00  0.000E+00  2.286E+00  2.295E+00
  0.000E+00  3.062E-01  1.016E+05  0.000E+00  0.000E+00  2.086E+00  2.095E+00
  0.000E+00  3.125E-01  1.015E+05  0.000E+00  0.000E+00  1.890E+00  1.899E+00
  0.000E+00  3.188E-01  1.015E+05  0.000E+00  0.000E+00  1.702E+00  1.711E+00
  0.000E+00  3.251E-01  1.015E+05  0.000E+00  0.000E+00  1.525E+00  1.533E+00
  0.000E+00  3.314E-01  1.015E+05  0.000E+00  0.000E+00  1.360E+00  1.368E+00
  0.000E+00  3.377E-01  1.015E+05  0.000E+00  0.000E+00  1.209E+00  1.216E+00
  0.000E+00  3.440E-01  1.015E+05  0.000E+00  0.000E+00  1.073E+00  1.079E+00
  0.000E+00  3.503E-01  1.015E+05  0.000E+00  0.000E+00  9.507E-01  9.565E-01
  0.000E+00  3.567E-01  1.015E+05  0.000E+00  0.000E+00  8.429E-01  8.480E-01
  0.000E+00  3.630E-01  1.015E+05  0.000E+00  0.000E+00  7.487E-01  7.532E-01
  0.000E+00  3.693E-01  1.015E+05  0.000E+00  0.000E+00  6.669E-01  6.708E-01
  0.000E+00  3.756E-01  1.015E+05  0.000E+00  0.000E+00  5.965E-01  5.998E-01
  0.000E+00  3.819E-01  1.015E+05  0.000E+00  0.000E+00  5.363E-01  5.392E-01
  0.000E+00  3.882E-01  1.015E+05  0.000E+00  0.000E+00  4.851E-01  4.875E-01
  0.000E+00  3.945E-01  1.015E+05  0.000E+00  0.000E+00  4.418E-01  4.438E-01
  0.000E+00  4.008E-01  1.014E+05  0.000E+00  0.000E+00  4.052E-01  4.069E-01
  0.000E+00  4.072E-01  1.014E+05  0.000E+00  0.000E+00  3.743E-01  3.758E-01
  0.000E+00  4.135E-01  1.014E+05  0.000E+00  0.000E+00  3.482E-01  3.494E-01
  0.000E+00  4.198E-01  1.014E+05  0.000E+00  0.000E+00  3.261E-01  3.272E-01
  0.000E+00  4.261E-01  1.014E+05  0.000E+00  0.000E+00  3.073E-01  3.082E-01
  0.000E+00  4.324E-01  1.014E+05  0.000E+00  0.000E+00  2.912E-01  2.920E-01
  0.000E+00  4.387E-01  1.014E+05  0.000E+00  0.000E+00  2.773E-01  2.779E-01
  0.000E+00  4.450E-01  1.014E+05  0.000E+00  0.000E+00  2.650E-01  2.656E-01
  0.000E+00  4.513E-01  1.014E+05  0.000E+00  0.000E+00  2.542E-01  2.547E-01
  0.000E+00  4.577E-01  1.014E+05  0.000E+00  0.000E+00  2.444E-01  2.449E-01
  0.000E+00  4.640E-01  1.014E+05  0.000E+00  0.000E+00  2.355E-01  2.359E-01
  0.000E+00  4.703E-01  1.014E+05  0.000E+00  0.000E+00  2.272E-01  2.276E-01
  0.000E+00  4.766E-01  1.014E+05  0.000E+00  0.000E+00  2.195E-01  2.199E-01
  0.000E+00  4.829E-01  1.014E+05  0.000E+00  0.000E+00  2.122E-01  2.126E-01
  0.000E+00  4.892E-01  1.013E+05  0.000E+00  0.000E+00  2.055E-01  2.058E-01
  0.000E+00  4.955E-01  1.013E+05  0.000E+00  0.000E+00  1.995E-01  1.998E-01
  0.000E+00  5.018E-01  1.013E+05  0.000E+00  0.000E+00  1.952E-01  1.955E-01
  0.000E+00  5.050E-01  1.013E+05  0.000E+00  0.000E+00  1.952E-01  1.955E-01
  4.000E-03  0.000E+00  1.019E+05  8.159E-07  6.500E-02  7.836E-01  7.836E-01
  4.000E-03  3.156E-03  1.019E+05  8.159E-07  6.498E-02  7.836E-01  7.836E-01
  4.000E-03  9.469E-03  1.019E+05  3.451E-07  6.499E-02  7.836E-01  7.836E-01
  4.000E-03  1.578E-02  1.019E+05  2.431E-07  6.500E-02  7.836E-01  7.836E-01
  4.000E-03  2.209E-02  1.019E+05  2.385E-07  6.499E-02  7.837E-01  7.837E-01
  4.000E-03  2.841E-02  1.019E+05  7.592E-07  6.499E-02  7.837E-01  7.837E-01
  4.000E-03  3.472E-02  1.019E+05  1.433E-06  6.500E-02  7.837E-01  7.837E-01
  4.000E-03  4.103E-02  1.019E+05  7.270E-07  6.500E-02  7.838E-01  7.838E-01
  4.000E-03  4.734E-02  1.019E+05  1.560E-07  6.500E-02  7.840E-01  7.840E-01
  4.000E-03  5.366E-02  1.019E+05  7.211E-08  6.499E-02  7.843E-01  7.843E-01
  4.000E-03  5.997E-02  1.018E+05  1.917E-08  6.499E-02  7.848E-01  7.848E-01
  4.000E-03  6.628E-02  1.018E+05  6.982E-09  6.499E-02  7.857E-01  7.856E-01
  4.000E-03  7.259E-02  1.018E+05  2.514E-09  6.499E-02  7.870E-01  7.870E-01
  4.000E-03  7.891E-02  1.018E+05  1.418E-09  6.499E-02  7.892E-01  7.891E-01
  4.000E-03  8.522E-02  1.018E+05  1.084E-09  6.499E-02  7.926E-01  7.924E-01
  4.000E-03  9.153E-02  1.018E+05  9.356E-10  6.500E-02  7.978E-01  7.975E-01
  4.000E-03  9.784E-02  1.018E+05  8.275E-10  6.500E-02  8.056E-01  8.052E-01
  4.000E-03  1.042E-01  1.018E+05  7.199E-10  6.500E-02  8.170E-01  8.165E-01
  4.000E-03  1.105E-01  1.018E+05  5.953E-10  6.499E-02  8.335E-01  8.328E-01
  4.000E-03  1.168E-01  1.018E+05  4.933E-10  6.499E-02  8.568E-01  8.557E-01
  4.000E-03  1.231E-01  1.018E+05  3.827E-10  6.499E-02  8.888E-01  8.873E-01
  4.000E-03  1.294E-01  1.018E+05  3.216E-10  6.499E-02  9.318E-01  9.298E-01
  4.000E-03  1.357E-01  1.018E+05  3.237E-10  6.499E-02  9.883E-01  9.858E-01
  4.000E-03  1.420E-01  1.017E+05  2.783E-10  6.499E-02  1.061E+00  1.057E+00
  4.000E-03  1.483E-01  1.017E+05  2.050E-10  6.499E-02  1.151E+00  1.147E+00
  4.000E-03  1.547E-01  1.017E+05  1.548E-10  6.499E-02  1.262E+00  1.257E+00
  4.000E-03  1.610E-01  1.017E+05  1.206E-10  6.500E-02  1.393E+00  1.387E+00
  4.000E-03  1.673E-01  1.017E+05  7.144E-11  6.500E-02  1.546E+00  1.539E+00
  4.000E-03  1.736E-01  1.017E+05  2.535E-11  6.500E-02  1.717E+00  1.709E+00
  4.000E-03  1.799E-01  1.017E+05 -9.688E-12  6.499E-02  1.906E+00  1.897E+00
  4.000E-03  1.862E-01  1.017E+05  1.622E-11  6.499E-02  2.107E+00  2.098E+00
  4.000E-03  1.925E-01  1.017E+05  5.062E-11  6.499E-02  2.316E+00  2.306E+00
  4.000E-03  1.988E-01  1.017E+05  3.439E-11  6.499E-02  2.526E+00  2.516E+00
  4.000E-03  2.052E-01  1.017E+05  3.393E-11  6.499E-02  2.729E+00  2.719E+00
  4.000E-03  2.115E-01  1.017E+05  2.683E-11  6.499E-02  2.918E+00  2.909E+00
  4.000E-03  2.178E-01  1.017E+05  1.820E-11  6.499E-02  3.087E+00  3.079E+00
  4.000E-03  2.241E-01  1.017E+05  9.396E-12  6.499E-02  3.227E+00  3.221E+00
  4.000E-03  2.304E-01  1.016E+05 -1.220E-11  6.500E-02  3.335E+00  3.330E+00
  4.000E-03  2.367E-01  1.016E+05 -2.518E-11  6.500E-02  3.406E+00  3.402E+00
  4.000E-03  2.430E-01  1.016E+05  7.465E-12  6.500E-02  3.437E+00  3.435E+00
  4.000E-03  2.493E-01  1.016E+05 -8.282E-12  6.499E-02  3.428E+00  3.428E+00
  4.000E-03  2.557E-01  1.016E+05 -5.196E-12  6.499E-02  3.379E+00  3.381E+00
  4.000E-03  2.620E-01  1.016E+05  2.179E-11  6.499E-02  3.294E+00  3.298E+00
  4.000E-03  2.683E-01  1.016E+05  5.799E-12  6.499E-02  3.177E+00  3.182E+00
  4.000E-03  2.746E-01  1.016E+05  1.484E-11  6.499E-02  3.032E+00  3.038E+00
  4.000E-03  2.809E-01  1.016E+05  2.288E-11  6.499E-02  2.864E+00  2.872E+00
  4.000E-03  2.872E-01  1.016E+05  2.278E-11  6.500E-02  2.680E+00  2.688E+00
  4.000E-03  2.935E-01  1.016E+05 -2.892E-11  6.500E-02  2.485E+00  2.494E+00
  4.000E-03  2.998E-01  1.016E+05 -3.062E-11  6.500E-02  2.286E+00  2.295E+00
  4.000E-03  3.062E-01  1.016E+05 -1.711E-11  6.499E-02  2.086E+00  2.095E+00
  4.000E-03  3.125E-01  1.015E+05  2.660E-12  6.499E-02  1.890E+00  1.899E+00
  4.000E-03  3.188E-01  1.015E+05  3.518E-11  6.499E-02  1.702E+00  1.711E+00
  4.000E-03  3.251E-01  1.015E+05  8.740E-12  6.499E-02  1.525E+00  1.533E+00
  4.000E-03  3.314E-01  1.015E+05  3.204E-12  6.499E-02  1.360E+00  1.368E+00
  4.000E-03  3.377E-01  1.015E+05 -1.100E-13  6.499E-02  1.209E+00  1.216E+00
  4.000E-03  3.440E-01  1.015E+05  3.455E-12  6.499E-02  1.073E+00  1.079E+00
  4.000E-03  3.503E-01  1.015E+05  9.841E-12  6.499E-02  9.507E-01  9.565E-01
  4.000E-03  3.567E-01  1.015E+05  1.505E-11  6.500E-02  8.429E-01  8.480E-01
  4.000E-03  3.630E-01  1.015E+05 -2.693E-11  6.500E-02  7.487E-01  7.532E-01
  4.000E-03  3.693E-01  1.015E+05 -2.880E-11  6.500E-02  6.669E-01  6.708E-01
  4.000E-03  3.756E-01  1.015E+05 -2.169E-11  6.499E-02  5.965E-01  5.998E-01
  4.000E-03  3.819E-01  1.015E+05 -2.566E-12  6.499E-02  5.363E-01  5.392E-01
  4.000E-03  3.882E-01  1.015E+05  3.381E-11  6.499E-02  4.851E-01  4.875E-01
  4.000E-03  3.945E-01  1.015E+05  1.392E-11  6.499E-02  4.418E-01  4.438E-01
  4.000E-03  4.008E-01  1.014E+05  8.364E-12  6.499E-02  4.052E-01  4.069E-01
  4.000E-03  4.072E-01  1.014E+05 -2.852E-12  6.499E-02  3.743E-01  3.758E-01
  4.000E-03  4.135E-01  1.014E+05 -9.584E-12  6.499E-02  3.482E-01  3.494E-01
  4.000E-03  4.198E-01  1.014E+05 -7.932E-12  6.499E-02  3.261E-01  3.272E-01
  4.000E-03  4.261E-01  1.014E+05 -1.504E-11  6.500E-02  3.073E-01  3.082E-01
  4.000E-03  4.324E-01  1.014E+05  1.297E-12  6.500E-02  2.912E-01  2.920E-01
  4.000E-03  4.387E-01  1.014E+05  1.400E-11  6.500E-02  2.773E-01  2.779E-01
  4.000E-03  4.450E-01  1.014E+05 -2.765E-11  6.499E-02  2.650E-01  2.656E-01
  4.000E-03  4.513E-01  1.014E+05 -9.335E-12  6.499E-02  2.542E-01  2.547E-01
  4.000E-03  4.577E-01  1.014E+05  1.580E-11  6.499E-02  2.444E-01  2.449E-01
  4.000E-03  4.640E-01  1.014E+05 -2.417E-12  6.499E-02  2.355E-01  2.359E-01
  4.000E-03  4.703E-01  1.014E+05  6.368E-12  6.499E-02  2.272E-01  2.276E-01
  4.000E-03  4.766E-01  1.014E+05  1.108E-11  6.499E-02  2.195E-01  2.199E-01
  4.000E-03  4.829E-01  1.014E+05  8.570E-12  6.499E-02  2.122E-01  2.126E-01
  4.000E-03  4.892E-01  1.013E+05 -1.004E-11  6.499E-02  2.055E-01  2.058E-01
  4.000E-03  4.955E-01  1.013E+05 -4.077E-11  6.499E-02  1.995E-01  1.998E-01
  4.000E-03  5.018E-01  1.013E+05 -5.680E-11  6.500E-02  1.952E-01  1.955E-01
  4.000E-03  5.050E-01  1.013E+05 -5.680E-11  6.500E-02  1.952E-01  1.955E-01
  1.200E-02  0.000E+00  1.019E+05  1.109E-06  6.500E-02  7.827E-01  7.827E-01
  1.200E-02  3.156E-03  1.019E+05  1.109E-06  6.498E-02  7.827E-01  7.827E-01
  1.200E-02  9.469E-03  1.019E+05  4.972E-07  6.500E-02  7.827E-01  7.827E-01
  1.200E-02  1.578E-02  1.019E+05  2.964E-07  6.500E-02  7.827E-01  7.827E-01
  1.200E-02  2.209E-02  1.019E+05 -4.992E-07  6.500E-02  7.827E-01  7.827E-01
  1.200E-02  2.841E-02  1.019E+05  2.598E-06  6.500E-02  7.827E-01  7.827E-01
  1.200E-02  3.472E-02  1.019E+05  8.146E-06  6.500E-02  7.828E-01  7.828E-01
  1.200E-02  4.103E-02  1.019E+05  2.552E-06  6.501E-02  7.829E-01  7.828E-01
  1.200E-02  4.734E-02  1.019E+05 -6.636E-07  6.500E-02  7.830E-01  7.830E-01
  1.200E-02  5.366E-02  1.019E+05 -2.332E-08  6.500E-02  7.833E-01  7.833E-01
  1.200E-02  5.997E-02  1.018E+05 -4.739E-08  6.500E-02  7.838E-01  7.838E-01
  1.200E-02  6.628E-02  1.018E+05 -1.261E-08  6.500E-02  7.847E-01  7.846E-01
  1.200E-02  7.259E-02  1.018E+05 -4.136E-09  6.500E-02  7.860E-01  7.860E-01
  1.200E-02  7.891E-02  1.018E+05  4.654E-10  6.500E-02  7.882E-01  7.881E-01
  1.200E-02  8.522E-02  1.018E+05  2.095E-09  6.500E-02  7.916E-01  7.914E-01
  1.200E-02  9.153E-02  1.018E+05  2.520E-09  6.500E-02  7.968E-01  7.965E-01
  1.200E-02  9.784E-02  1.018E+05  2.444E-09  6.501E-02  8.046E-01  8.042E-01
  1.200E-02  1.042E-01  1.018E+05  2.203E-09  6.500E-02  8.160E-01  8.155E-01
  1.200E-02  1.105E-01  1.018E+05  1.893E-09  6.500E-02  8.325E-01  8.317E-01
  1.200E-02  1.168E-01  1.018E+05  1.607E-09  6.500E-02  8.557E-01  8.547E-01
  1.200E-02  1.231E-01  1.018E+05  1.321E-09  6.500E-02  8.877E-01  8.862E-01
  1.200E-02  1.294E-01  1.018E+05  1.113E-09  6.500E-02  9.307E-01  9.287E-01
  1.200E-02  1.357E-01  1.018E+05  9.061E-10  6.500E-02  9.872E-01  9.846E-01
  1.200E-02  1.420E-01  1.017E+05  6.528E-10  6.500E-02  1.060E+00  1.056E+00
  1.200E-02  1.483E-01  1.017E+05  4.390E-10  6.500E-02  1.150E+00  1.146E+00
  1.200E-02  1.547E-01  1.017E+05  2.862E-10  6.500E-02  1.261E+00  1.256E+00
  1.200E-02  1.610E-01  1.017E+05  1.966E-10  6.500E-02  1.392E+00  1.386E+00
  1.200E-02  1.673E-01  1.017E+05  1.293E-10  6.501E-02  1.544E+00  1.537E+00
  1.200E-02  1.736E-01  1.017E+05  9.975E-11  6.500E-02  1.716E+00  1.708E+00
  1.200E-02  1.799E-01  1.017E+05  1.055E-10  6.500E-02  1.905E+00  1.896E+00
  1.200E-02  1.862E-01  1.017E+05  1.716E-10  6.500E-02  2.106E+00  2.097E+00
  1.200E-02  1.925E-01  1.017E+05  2.046E-10  6.500E-02  2.315E+00  2.305E+00
  1.200E-02  1.988E-01  1.017E+05  1.546E-10  6.500E-02  2.524E+00  2.515E+00
  1.200E-02  2.052E-01  1.017E+05  1.072E-10  6.500E-02  2.728E+00  2.718E+00
  1.200E-02  2.115E-01  1.017E+05  6.929E-11  6.500E-02  2.917E+00  2.908E+00
  1.200E-02  2.178E-01  1.017E+05  3.934E-11  6.500E-02  3.086E+00  3.078E+00
  1.200E-02  2.241E-01  1.017E+05  1.341E-11  6.500E-02  3.226E+00  3.220E+00
  1.200E-02  2.304E-01  1.016E+05 -4.175E-11  6.500E-02  3.334E+00  3.329E+00
  1.200E-02  2.367E-01  1.016E+05 -9.508E-11  6.501E-02  3.405E+00  3.401E+00
  1.200E-02  2.430E-01  1.016E+05 -7.762E-11  6.500E-02  3.436E+00  3.434E+00
  1.200E-02  2.493E-01  1.016E+05 -6.984E-11  6.500E-02  3.427E+00  3.427E+00
  1.200E-02  2.557E-01  1.016E+05 -4.401E-12  6.500E-02  3.379E+00  3.381E+00
  1.200E-02  2.620E-01  1.016E+05  8.171E-11  6.500E-02  3.294E+00  3.298E+00
  1.200E-02  2.683E-01  1.016E+05  9.503E-11  6.500E-02  3.177E+00  3.182E+00
  1.200E-02  2.746E-01  1.016E+05  8.753E-11  6.500E-02  3.031E+00  3.038E+00
  1.200E-02  2.809E-01  1.016E+05  5.617E-11  6.500E-02  2.864E+00  2.872E+00
  1.200E-02  2.872E-01  1.016E+05  1.412E-11  6.500E-02  2.680E+00  2.688E+00
  1.200E-02  2.935E-01  1.016E+05 -6.790E-11  6.501E-02  2.485E+00  2.494E+00
  1.200E-02  2.998E-01  1.016E+05 -7.362E-11  6.500E-02  2.286E+00  2.295E+00
  1.200E-02  3.062E-01  1.016E+05 -5.467E-11  6.500E-02  2.086E+00  2.095E+00
  1.200E-02  3.125E-01  1.015E+05 -3.029E-11  6.500E-02  1.890E+00  1.899E+00
  1.200E-02  3.188E-01  1.015E+05  9.682E-12  6.500E-02  1.702E+00  1.711E+00
  1.200E-02  3.251E-01  1.015E+05  7.341E-12  6.500E-02  1.525E+00  1.534E+00
  1.200E-02  3.314E-01  1.015E+05  2.711E-11  6.500E-02  1.361E+00  1.368E+00
  1.200E-02  3.377E-01  1.015E+05  4.382E-11  6.500E-02  1.210E+00  1.217E+00
  1.200E-02  3.440E-01  1.015E+05  4.829E-11  6.500E-02  1.074E+00  1.080E+00
  1.200E-02  3.503E-01  1.015E+05  4.421E-11  6.500E-02  9.518E-01  9.576E-01
  1.200E-02  3.567E-01  1.015E+05  2.409E-11  6.500E-02  8.442E-01  8.493E-01
  1.200E-02  3.630E-01  1.015E+05 -4.877E-11  6.501E-02  7.501E-01  7.545E-01
  1.200E-02  3.693E-01  1.015E+05 -6.144E-11  6.500E-02  6.684E-01  6.723E-01
  1.200E-02  3.756E-01  1.015E+05 -4.563E-11  6.500E-02  5.981E-01  6.014E-01
  1.200E-02  3.819E-01  1.015E+05 -1.486E-11  6.500E-02  5.380E-01  5.409E-01
  1.200E-02  3.882E-01  1.015E+05  1.637E-11  6.500E-02  4.869E-01  4.894E-01
  1.200E-02  3.945E-01  1.015E+05 -9.199E-12  6.500E-02  4.437E-01  4.457E-01
  1.200E-02  4.008E-01  1.014E+05 -6.181E-12  6.500E-02  4.071E-01  4.089E-01
  1.200E-02  4.072E-01  1.014E+05  1.815E-11  6.500E-02  3.763E-01  3.778E-01
  1.200E-02  4.135E-01  1.014E+05  4.805E-11  6.500E-02  3.503E-01  3.516E-01
  1.200E-02  4.198E-01  1.014E+05  6.698E-11  6.500E-02  3.283E-01  3.293E-01
  1.200E-02  4.261E-01  1.014E+05  3.019E-11  6.500E-02  3.095E-01  3.104E-01
  1.200E-02  4.324E-01  1.014E+05 -1.450E-11  6.501E-02  2.934E-01  2.942E-01
  1.200E-02  4.387E-01  1.014E+05 -5.528E-11  6.500E-02  2.795E-01  2.802E-01
  1.200E-02  4.450E-01  1.014E+05 -1.082E-10  6.500E-02  2.673E-01  2.679E-01
  1.200E-02  4.513E-01  1.014E+05 -4.317E-11  6.500E-02  2.565E-01  2.570E-01
  1.200E-02  4.577E-01  1.014E+05  3.963E-11  6.500E-02  2.467E-01  2.471E-01
  1.200E-02  4.640E-01  1.014E+05  5.776E-11  6.500E-02  2.377E-01  2.382E-01
  1.200E-02  4.703E-01  1.014E+05  5.528E-11  6.500E-02  2.294E-01  2.298E-01
  1.200E-02  4.766E-01  1.014E+05  1.691E-11  6.500E-02  2.217E-01  2.220E-01
  1.200E-02  4.829E-01  1.014E+05 -3.811E-11  6.500E-02  2.144E-01  2.147E-01
  1.200E-02  4.892E-01  1.013E+05 -8.414E-11  6.500E-02  2.076E-01  2.079E-01
  1.200E-02  4.955E-01  1.013E+05 -1.118E-10  6.500E-02  2.016E-01  2.018E-01
  1.200E-02  5.018E-01  1.013E+05 -1.243E-10  6.500E-02  1.973E-01  1.975E-01
  1.200E-02  5.050E-01  1.013E+05 -1.243E-10  6.500E-02  1.973E-01  1.975E-01
  2.000E-02  0.000E+00  1.019E+05  5.386E-07  6.500E-02  7.807E-01  7.807E-01
  2.000E-02  3.156E-03  1.019E+05  5.386E-07  6.498E-02  7.807E-01  7.807E-01
  2.000E-02  9.469E-03  1.019E+05  3.616E-07  6.500E-02  7.807E-01  7.807E-01
  2.000E-02  1.578E-02  1.019E+05  2.741E-07  6.500E-02  7.808E-01  7.807E-01
  2.000E-02  2.209E-02  1.019E+05 -4.735E-07  6.500E-02  7.808E-01  7.808E-01
  2.000E-02  2.841E-02  1.019E+05  2.660E-06  6.501E-02  7.808E-01  7.808E-01
  2.000E-02  3.472E-02  1.019E+05  8.158E-06  6.500E-02  7.808E-01  7.808E-01
  2.000E-02  4.103E-02  1.019E+05  2.610E-06  6.500E-02  7.809E-01  7.809E-01
  2.000E-02  4.734E-02  1.019E+05 -6.335E-07  6.500E-02  7.811E-01  7.811E-01
  2.000E-02  5.366E-02  1.019E+05 -5.727E-11  6.500E-02  7.814E-01  7.814E-01
  2.000E-02  5.997E-02  1.018E+05 -3.266E-08  6.500E-02  7.819E-01  7.819E-01
  2.000E-02  6.628E-02  1.018E+05 -2.594E-09  6.500E-02  7.827E-01  7.827E-01
  2.000E-02  7.259E-02  1.018E+05  2.691E-09  6.500E-02  7.841E-01  7.840E-01
  2.000E-02  7.891E-02  1.018E+05  5.297E-09  6.500E-02  7.862E-01  7.861E-01
  2.000E-02  8.522E-02  1.018E+05  5.629E-09  6.500E-02  7.896E-01  7.895E-01
  2.000E-02  9.153E-02  1.018E+05  5.199E-09  6.500E-02  7.948E-01  7.946E-01
  2.000E-02  9.784E-02  1.018E+05  4.469E-09  6.501E-02  8.026E-01  8.022E-01
  2.000E-02  1.042E-01  1.018E+05  3.724E-09  6.500E-02  8.140E-01  8.135E-01
  2.000E-02  1.105E-01  1.018E+05  3.096E-09  6.500E-02  8.305E-01  8.297E-01
  2.000E-02  1.168E-01  1.018E+05  2.541E-09  6.500E-02  8.536E-01  8.526E-01
  2.000E-02  1.231E-01  1.018E+05  2.074E-09  6.500E-02  8.856E-01  8.841E-01
  2.000E-02  1.294E-01  1.018E+05  1.645E-09  6.500E-02  9.286E-01  9.266E-01
  2.000E-02  1.357E-01  1.018E+05  1.218E-09  6.500E-02  9.851E-01  9.825E-01
  2.000E-02  1.420E-01  1.017E+05  8.942E-10  6.500E-02  1.057E+00  1.054E+00
  2.000E-02  1.483E-01  1.017E+05  6.498E-10  6.500E-02  1.148E+00  1.144E+00
  2.000E-02  1.547E-01  1.017E+05  4.651E-10  6.500E-02  1.259E+00  1.253E+00
  2.000E-02  1.610E-01  1.017E+05  3.539E-10  6.500E-02  1.390E+00  1.384E+00
  2.000E-02  1.673E-01  1.017E+05  3.033E-10  6.501E-02  1.542E+00  1.535E+00
  2.000E-02  1.736E-01  1.017E+05  2.872E-10  6.500E-02  1.714E+00  1.706E+00
  2.000E-02  1.799E-01  1.017E+05  2.764E-10  6.500E-02  1.903E+00  1.894E+00
  2.000E-02  1.862E-01  1.017E+05  2.645E-10  6.500E-02  2.104E+00  2.095E+00
  2.000E-02  1.925E-01  1.017E+05  2.299E-10  6.500E-02  2.313E+00  2.303E+00
  2.000E-02  1.988E-01  1.017E+05  1.825E-10  6.500E-02  2.522E+00  2.513E+00
  2.000E-02  2.052E-01  1.017E+05  1.314E-10  6.500E-02  2.726E+00  2.716E+00
  2.000E-02  2.115E-01  1.017E+05  8.793E-11  6.500E-02  2.915E+00  2.906E+00
  2.000E-02  2.178E-01  1.017E+05  4.062E-11  6.500E-02  3.084E+00  3.076E+00
  2.000E-02  2.241E-01  1.017E+05 -1.875E-12  6.500E-02  3.225E+00  3.218E+00
  2.000E-02  2.304E-01  1.016E+05 -4.853E-11  6.500E-02  3.333E+00  3.327E+00
  2.000E-02  2.367E-01  1.016E+05 -7.416E-11  6.501E-02  3.403E+00  3.400E+00
  2.000E-02  2.430E-01  1.016E+05 -5.687E-11  6.500E-02  3.435E+00  3.433E+00
  2.000E-02  2.493E-01  1.016E+05 -1.451E-11  6.500E-02  3.426E+00  3.426E+00
  2.000E-02  2.557E-01  1.016E+05  4.540E-11  6.500E-02  3.378E+00  3.380E+00
  2.000E-02  2.620E-01  1.016E+05  8.370E-11  6.500E-02  3.293E+00  3.297E+00
  2.000E-02  2.683E-01  1.016E+05  8.295E-11  6.500E-02  3.176E+00  3.181E+00
  2.000E-02  2.746E-01  1.016E+05  4.957E-11  6.500E-02  3.031E+00  3.037E+00
  2.000E-02  2.809E-01  1.016E+05  1.240E-11  6.500E-02  2.864E+00  2.871E+00
  2.000E-02  2.872E-01  1.016E+05 -2.198E-11  6.500E-02  2.680E+00  2.688E+00
  2.000E-02  2.935E-01  1.016E+05 -4.888E-11  6.501E-02  2.485E+00  2.494E+00
  2.000E-02  2.998E-01  1.016E+05 -5.366E-11  6.500E-02  2.286E+00  2.295E+00
  2.000E-02  3.062E-01  1.016E+05 -4.735E-11  6.500E-02  2.086E+00  2.096E+00
  2.000E-02  3.125E-01  1.015E+05 -2.759E-11  6.500E-02  1.891E+00  1.900E+00
  2.000E-02  3.188E-01  1.015E+05 -1.296E-12  6.500E-02  1.703E+00  1.712E+00
  2.000E-02  3.251E-01  1.015E+05  2.619E-11  6.500E-02  1.527E+00  1.535E+00
  2.000E-02  3.314E-01  1.015E+05  4.369E-11  6.500E-02  1.362E+00  1.370E+00
  2.000E-02  3.377E-01  1.015E+05  4.858E-11  6.500E-02  1.212E+00  1.219E+00
  2.000E-02  3.440E-01  1.015E+05  3.240E-11  6.500E-02  1.076E+00  1.082E+00
  2.000E-02  3.503E-01  1.015E+05  1.311E-11  6.500E-02  9.542E-01  9.599E-01
  2.000E-02  3.567E-01  1.015E+05 -1.327E-11  6.500E-02  8.468E-01  8.519E-01
  2.000E-02  3.630E-01  1.015E+05 -3.629E-11  6.501E-02  7.529E-01  7.574E-01
  2.000E-02  3.693E-01  1.015E+05 -3.622E-11  6.500E-02  6.715E-01  6.753E-01
  2.000E-02  3.756E-01  1.015E+05 -2.553E-11  6.500E-02  6.014E-01  6.047E-01
  2.000E-02  3.819E-01  1.015E+05 -1.273E-11  6.500E-02  5.415E-01  5.443E-01
  2.000E-02  3.882E-01  1.015E+05 -1.002E-11  6.500E-02  4.906E-01  4.930E-01
  2.000E-02  3.945E-01  1.015E+05 -5.630E-12  6.500E-02  4.475E-01  4.496E-01
  2.000E-02  4.008E-01  1.014E+05  1.037E-11  6.500E-02  4.111E-01  4.129E-01
  2.000E-02  4.072E-01  1.014E+05  3.953E-11  6.500E-02  3.804E-01  3.819E-01
  2.000E-02  4.135E-01  1.014E+05  5.339E-11  6.500E-02  3.545E-01  3.558E-01
  2.000E-02  4.198E-01  1.014E+05  4.497E-11  6.500E-02  3.326E-01  3.337E-01
  2.000E-02  4.261E-01  1.014E+05 -5.065E-13  6.500E-02  3.139E-01  3.148E-01
  2.000E-02  4.324E-01  1.014E+05 -4.713E-11  6.501E-02  2.979E-01  2.987E-01
  2.000E-02  4.387E-01  1.014E+05 -6.476E-11  6.500E-02  2.840E-01  2.847E-01
  2.000E-02  4.450E-01  1.014E+05 -4.826E-11  6.500E-02  2.718E-01  2.724E-01
  2.000E-02  4.513E-01  1.014E+05  8.727E-12  6.500E-02  2.610E-01  2.615E-01
  2.000E-02  4.577E-01  1.014E+05  5.514E-11  6.500E-02  2.512E-01  2.516E-01
  2.000E-02  4.640E-01  1.014E+05  6.628E-11  6.500E-02  2.422E-01  2.426E-01
  2.000E-02  4.703E-01  1.014E+05  3.527E-11  6.500E-02  2.338E-01  2.342E-01
  2.000E-02  4.766E-01  1.014E+05 -1.515E-11  6.500E-02  2.260E-01  2.264E-01
  2.000E-02  4.829E-01  1.014E+05 -6.619E-11  6.500E-02  2.186E-01  2.190E-01
  2.000E-02  4.892E-01  1.013E+05 -9.104E-11  6.500E-02  2.117E-01  2.120E-01
  2.000E-02  4.955E-01  1.013E+05 -9.494E-11  6.500E-02  2.056E-01  2.059E-01
  2.000E-02  5.018E-01  1.013E+05 -9.700E-11  6.500E-02  2.013E-01  2.015E-01
  2.000E-02  5.050E-01  1.013E+05 -9.700E-11  6.500E-02  2.013E-01  2.015E-01
  2.800E-02  0.000E+00  1.019E+05  4.110E-07  6.500E-02  7.779E-01  7.779E-01
  2.800E-02  3.156E-03  1.019E+05  4.110E-07  6.498E-02  7.779E-01  7.779E-01
  2.800E-02  9.469E-03  1.019E+05  3.558E-07  6.500E-02  7.779E-01  7.779E-01
  2.800E-02  1.578E-02  1.019E+05  3.477E-07  6.500E-02  7.779E-01  7.779E-01
  2.800E-02  2.209E-02  1.019E+05  3.357E-07  6.500E-02  7.780E-01  7.780E-01
  2.800E-02  2.841E-02  1.019E+05  9.433E-07  6.501E-02  7.780E-01  7.780E-01
  2.800E-02  3.472E-02  1.019E+05  9.450E-07  6.500E-02  7.780E-01  7.780E-01
  2.800E-02  4.103E-02  1.019E+05  8.753E-07  6.500E-02  7.781E-01  7.781E-01
  2.800E-02  4.734E-02  1.019E+05  1.945E-07  6.500E-02  7.783E-01  7.783E-01
  2.800E-02  5.366E-02  1.019E+05  1.262E-07  6.500E-02  7.786E-01  7.786E-01
  2.800E-02  5.997E-02  1.018E+05  5.407E-08  6.500E-02  7.791E-01  7.791E-01
  2.800E-02  6.628E-02  1.018E+05  3.244E-08  6.500E-02  7.799E-01  7.799E-01
  2.800E-02  7.259E-02  1.018E+05  2.058E-08  6.500E-02  7.813E-01  7.812E-01
  2.800E-02  7.891E-02  1.018E+05  1.461E-08  6.500E-02  7.834E-01  7.833E-01
  2.800E-02  8.522E-02  1.018E+05  1.094E-08  6.500E-02  7.868E-01  7.866E-01
  2.800E-02  9.153E-02  1.018E+05  8.440E-09  6.500E-02  7.919E-01  7.917E-01
  2.800E-02  9.784E-02  1.018E+05  6.555E-09  6.501E-02  7.996E-01  7.993E-01
  2.800E-02  1.042E-01  1.018E+05  5.136E-09  6.500E-02  8.110E-01  8.105E-01
  2.800E-02  1.105E-01  1.018E+05  4.069E-09  6.500E-02  8.275E-01  8.267E-01
  2.800E-02  1.168E-01  1.018E+05  3.219E-09  6.500E-02  8.506E-01  8.496E-01
  2.800E-02  1.231E-01  1.018E+05  2.551E-09  6.500E-02  8.826E-01  8.811E-01
  2.800E-02  1.294E-01  1.018E+05  1.977E-09  6.500E-02  9.255E-01  9.235E-01
  2.800E-02  1.357E-01  1.018E+05  1.514E-09  6.500E-02  9.820E-01  9.794E-01
  2.800E-02  1.420E-01  1.017E+05  1.207E-09  6.500E-02  1.054E+00  1.051E+00
  2.800E-02  1.483E-01  1.017E+05  9.401E-10  6.500E-02  1.145E+00  1.141E+00
  2.800E-02  1.547E-01  1.017E+05  7.252E-10  6.500E-02  1.255E+00  1.250E+00
  2.800E-02  1.610E-01  1.017E+05  5.553E-10  6.500E-02  1.387E+00  1.381E+00
  2.800E-02  1.673E-01  1.017E+05  4.426E-10  6.501E-02  1.539E+00  1.532E+00
  2.800E-02  1.736E-01  1.017E+05  3.788E-10  6.500E-02  1.711E+00  1.703E+00
  2.800E-02  1.799E-01  1.017E+05  3.359E-10  6.500E-02  1.900E+00  1.891E+00
  2.800E-02  1.862E-01  1.017E+05  2.961E-10  6.500E-02  2.101E+00  2.092E+00
  2.800E-02  1.925E-01  1.017E+05  2.360E-10  6.500E-02  2.310E+00  2.300E+00
  2.800E-02  1.988E-01  1.017E+05  1.728E-10  6.500E-02  2.519E+00  2.510E+00
  2.800E-02  2.052E-01  1.017E+05  1.114E-10  6.500E-02  2.723E+00  2.713E+00
  2.800E-02  2.115E-01  1.017E+05  6.815E-11  6.500E-02  2.913E+00  2.904E+00
  2.800E-02  2.178E-01  1.017E+05  3.357E-11  6.500E-02  3.081E+00  3.073E+00
  2.800E-02  2.241E-01  1.017E+05  1.667E-11  6.500E-02  3.222E+00  3.216E+00
  2.800E-02  2.304E-01  1.016E+05 -2.719E-13  6.500E-02  3.330E+00  3.325E+00
  2.800E-02  2.367E-01  1.016E+05 -5.212E-12  6.501E-02  3.401E+00  3.398E+00
  2.800E-02  2.430E-01  1.016E+05  7.500E-12  6.500E-02  3.433E+00  3.431E+00
  2.800E-02  2.493E-01  1.016E+05  2.429E-11  6.500E-02  3.424E+00  3.424E+00
  2.800E-02  2.557E-01  1.016E+05  4.127E-11  6.500E-02  3.376E+00  3.378E+00
  2.800E-02  2.620E-01  1.016E+05  3.840E-11  6.500E-02  3.292E+00  3.296E+00
  2.800E-02  2.683E-01  1.016E+05  2.284E-11  6.500E-02  3.175E+00  3.180E+00
  2.800E-02  2.746E-01  1.016E+05 -6.363E-15  6.500E-02  3.030E+00  3.037E+00
  2.800E-02  2.809E-01  1.016E+05 -8.107E-12  6.500E-02  2.863E+00  2.871E+00
  2.800E-02  2.872E-01  1.016E+05 -1.425E-11  6.500E-02  2.680E+00  2.688E+00
  2.800E-02  2.935E-01  1.016E+05 -1.910E-11  6.501E-02  2.486E+00  2.495E+00
  2.800E-02  2.998E-01  1.016E+05 -1.785E-11  6.500E-02  2.287E+00  2.296E+00
  2.800E-02  3.062E-01  1.016E+05 -1.545E-11  6.500E-02  2.087E+00  2.097E+00
  2.800E-02  3.125E-01  1.015E+05 -5.791E-12  6.500E-02  1.893E+00  1.902E+00
  2.800E-02  3.188E-01  1.015E+05  2.904E-12  6.500E-02  1.705E+00  1.714E+00
  2.800E-02  3.251E-01  1.015E+05  1.455E-11  6.500E-02  1.529E+00  1.537E+00
  2.800E-02  3.314E-01  1.015E+05  1.311E-11  6.500E-02  1.365E+00  1.373E+00
  2.800E-02  3.377E-01  1.015E+05  6.587E-12  6.500E-02  1.215E+00  1.222E+00