VARIABLES="XP","YP","P","U","V","TS","TF"
ZONE T="Zone 001"I=    62 J=    22 F=POINT
  0.000E+00  0.000E+00 -2.949E-05  0.000E+00  0.000E+00  2.930E+02  2.931E+02
  0.000E+00  4.208E-03 -2.949E-05  0.000E+00  0.000E+00  2.930E+02  2.931E+02
  0.000E+00  1.262E-02 -2.957E-05  0.000E+00  0.000E+00  2.930E+02  2.933E+02
  0.000E+00  2.104E-02 -2.961E-05  0.000E+00  0.000E+00  2.930E+02  2.936E+02
  0.000E+00  2.946E-02 -2.963E-05  0.000E+00  0.000E+00  2.930E+02  2.942E+02
  0.000E+00  3.787E-02 -2.965E-05  0.000E+00  0.000E+00  2.930E+02  2.951E+02
  0.000E+00  4.629E-02 -2.966E-05  0.000E+00  0.000E+00  2.930E+02  2.965E+02
  0.000E+00  5.471E-02 -2.966E-05  0.000E+00  0.000E+00  2.930E+02  2.988E+02
  0.000E+00  6.313E-02 -2.967E-05  0.000E+00  0.000E+00  2.930E+02  3.022E+02
  0.000E+00  7.154E-02 -2.967E-05  0.000E+00  0.000E+00  2.930E+02  3.068E+02
  0.000E+00  7.996E-02 -2.968E-05  0.000E+00  0.000E+00  2.930E+02  3.125E+02
  0.000E+00  8.838E-02 -2.968E-05  0.000E+00  0.000E+00  2.930E+02  3.186E+02
  0.000E+00  9.679E-02 -2.968E-05  0.000E+00  0.000E+00  2.930E+02  3.236E+02
  0.000E+00  1.052E-01 -2.968E-05  0.000E+00  0.000E+00  2.931E+02  3.257E+02
  0.000E+00  1.136E-01 -2.968E-05  0.000E+00  0.000E+00  2.930E+02  3.236E+02
  0.000E+00  1.220E-01 -2.968E-05  0.000E+00  0.000E+00  2.930E+02  3.186E+02
  0.000E+00  1.305E-01 -2.968E-05  0.000E+00  0.000E+00  2.930E+02  3.125E+02
  0.000E+00  1.389E-01 -2.968E-05  0.000E+00  0.000E+00  2.930E+02  3.068E+02
  0.000E+00  1.473E-01 -2.968E-05  0.000E+00  0.000E+00  2.930E+02  3.022E+02
  0.000E+00  1.557E-01 -2.967E-05  0.000E+00  0.000E+00  2.930E+02  2.988E+02
  0.000E+00  1.641E-01 -2.967E-05  0.000E+00  0.000E+00  2.930E+02  2.965E+02
  0.000E+00  1.725E-01 -2.967E-05  0.000E+00  0.000E+00  2.930E+02  2.951E+02
  0.000E+00  1.810E-01 -2.966E-05  0.000E+00  0.000E+00  2.930E+02  2.942E+02
  0.000E+00  1.894E-01 -2.965E-05  0.000E+00  0.000E+00  2.930E+02  2.936E+02
  0.000E+00  1.978E-01 -2.964E-05  0.000E+00  0.000E+00  2.930E+02  2.934E+02
  0.000E+00  2.062E-01 -2.963E-05  0.000E+00  0.000E+00  2.930E+02  2.932E+02
  0.000E+00  2.146E-01 -2.962E-05  0.000E+00  0.000E+00  2.930E+02  2.931E+02
  0.000E+00  2.230E-01 -2.961E-05  0.000E+00  0.000E+00  2.930E+02  2.930E+02
  0.000E+00  2.315E-01 -2.959E-05  0.000E+00  0.000E+00  2.930E+02  2.930E+02
  0.000E+00  2.399E-01 -2.957E-05  0.000E+00  0.000E+00  2.930E+02  2.930E+02
  0.000E+00  2.483E-01 -2.954E-05  0.000E+00  0.000E+00  2.930E+02  2.930E+02
  0.000E+00  2.567E-01 -2.951E-05  0.000E+00  0.000E+00  2.930E+02  2.930E+02
  0.000E+00  2.651E-01 -2.948E-05  0.000E+00  0.000E+00  2.930E+02  2.930E+02
  0.000E+00  2.735E-01 -2.944E-05  0.000E+00  0.000E+00  2.930E+02  2.930E+02
  0.000E+00  2.820E-01 -2.939E-05  0.000E+00  0.000E+00  2.930E+02  2.930E+02
  0.000E+00  2.904E-01 -2.933E-05  0.000E+00  0.000E+00  2.930E+02  2.930E+02
  0.000E+00  2.988E-01 -2.926E-05  0.000E+00  0.000E+00  2.930E+02  2.930E+02
  0.000E+00  3.072E-01 -2.917E-05  0.000E+00  0.000E+00  2.930E+02  2.930E+02
  0.000E+00  3.156E-01 -2.907E-05  0.000E+00  0.000E+00  2.930E+02  2.930E+02
  0.000E+00  3.240E-01 -2.896E-05  0.000E+00  0.000E+00  2.930E+02  2.930E+02
  0.000E+00  3.325E-01 -2.882E-05  0.000E+00  0.000E+00  2.930E+02  2.930E+02
  0.000E+00  3.409E-01 -2.865E-05  0.000E+00  0.000E+00  2.930E+02  2.930E+02
  0.000E+00  3.493E-01 -2.846E-05  0.000E+00  0.000E+00  2.930E+02  2.930E+02
  0.000E+00  3.577E-01 -2.823E-05  0.000E+00  0.000E+00  2.930E+02  2.930E+02
  0.000E+00  3.661E-01 -2.795E-05  0.000E+00  0.000E+00  2.930E+02  2.931E+02
  0.000E+00  3.745E-01 -2.762E-05  0.000E+00  0.000E+00  2.930E+02  2.931E+02
  0.000E+00  3.830E-01 -2.724E-05  0.000E+00  0.000E+00  2.930E+02  2.932E+02
  0.000E+00  3.914E-01 -2.678E-05  0.000E+00  0.000E+00  2.930E+02  2.934E+02
  0.000E+00  3.998E-01 -2.623E-05  0.000E+00  0.000E+00  2.930E+02  2.938E+02
  0.000E+00  4.082E-01 -2.558E-05  0.000E+00  0.000E+00  2.930E+02  2.945E+02
  0.000E+00  4.166E-01 -2.481E-05  0.000E+00  0.000E+00  2.930E+02  2.958E+02
  0.000E+00  4.250E-01 -2.389E-05  0.000E+00  0.000E+00  2.930E+02  2.979E+02
  0.000E+00  4.335E-01 -2.279E-05  0.000E+00  0.000E+00  2.930E+02  3.014E+02
  0.000E+00  4.419E-01 -2.147E-05  0.000E+00  0.000E+00  2.930E+02  3.070E+02
  0.000E+00  4.503E-01 -1.987E-05  0.000E+00  0.000E+00  2.930E+02  3.157E+02
  0.000E+00  4.587E-01 -1.793E-05  0.000E+00  0.000E+00  2.930E+02  3.285E+02
  0.000E+00  4.671E-01 -1.554E-05  0.000E+00  0.000E+00  2.930E+02  3.465E+02
  0.000E+00  4.755E-01 -1.249E-05  0.000E+00  0.000E+00  2.930E+02  3.707E+02
  0.000E+00  4.840E-01 -8.450E-06  0.000E+00  0.000E+00  2.930E+02  4.011E+02
  0.000E+00  4.924E-01 -3.471E-06  0.000E+00  0.000E+00  2.932E+02  4.372E+02
  0.000E+00  5.008E-01  8.516E-07  0.000E+00  0.000E+00  3.033E+02  4.774E+02
  0.000E+00  5.050E-01  8.516E-07  0.000E+00  0.000E+00  3.033E+02  4.774E+02
  4.000E-03  0.000E+00 -2.575E-05 -7.728E-06  0.000E+00  2.930E+02  2.930E+02
  4.000E-03  4.208E-03 -2.579E-05 -7.728E-06  8.439E-08  2.930E+02  2.931E+02
  4.000E-03  1.262E-02 -2.584E-05 -7.791E-06  4.863E-08  2.930E+02  2.933E+02
  4.000E-03  2.104E-02 -2.587E-05 -7.813E-06  2.844E-08  2.930E+02  2.936E+02
  4.000E-03  2.946E-02 -2.589E-05 -7.821E-06  1.856E-08  2.930E+02  2.942E+02
  4.000E-03  3.787E-02 -2.590E-05 -7.824E-06  1.333E-08  2.930E+02  2.951E+02
  4.000E-03  4.629E-02 -2.591E-05 -7.826E-06  1.006E-08  2.930E+02  2.965E+02
  4.000E-03  5.471E-02 -2.591E-05 -7.827E-06  7.786E-09  2.930E+02  2.988E+02
  4.000E-03  6.313E-02 -2.592E-05 -7.828E-06  6.074E-09  2.930E+02  3.022E+02
  4.000E-03  7.154E-02 -2.592E-05 -7.828E-06  4.713E-09  2.930E+02  3.068E+02
  4.000E-03  7.996E-02 -2.593E-05 -7.829E-06  3.579E-09  2.930E+02  3.125E+02
  4.000E-03  8.838E-02 -2.593E-05 -7.829E-06  2.600E-09  2.930E+02  3.186E+02
  4.000E-03  9.679E-02 -2.593E-05 -7.829E-06  1.724E-09  2.930E+02  3.236E+02
  4.000E-03  1.052E-01 -2.593E-05 -7.829E-06  9.110E-10  2.931E+02  3.257E+02
  4.000E-03  1.136E-01 -2.593E-05 -7.829E-06  1.315E-10  2.930E+02  3.236E+02
  4.000E-03  1.220E-01 -2.593E-05 -7.829E-06 -6.423E-10  2.930E+02  3.186E+02
  4.000E-03  1.305E-01 -2.593E-05 -7.829E-06 -1.434E-09  2.930E+02  3.125E+02
  4.000E-03  1.389E-01 -2.593E-05 -7.828E-06 -2.266E-09  2.930E+02  3.068E+02
  4.000E-03  1.473E-01 -2.593E-05 -7.828E-06 -3.166E-09  2.930E+02  3.022E+02
  4.000E-03  1.557E-01 -2.592E-05 -7.828E-06 -4.161E-09  2.930E+02  2.988E+02
  4.000E-03  1.641E-01 -2.592E-05 -7.827E-06 -5.279E-09  2.930E+02  2.965E+02
  4.000E-03  1.725E-01 -2.592E-05 -7.827E-06 -6.551E-09  2.930E+02  2.951E+02
  4.000E-03  1.810E-01 -2.591E-05 -7.826E-06 -8.017E-09  2.930E+02  2.942E+02
  4.000E-03  1.894E-01 -2.590E-05 -7.825E-06 -9.717E-09  2.930E+02  2.936E+02
  4.000E-03  1.978E-01 -2.590E-05 -7.825E-06 -1.170E-08  2.930E+02  2.934E+02
  4.000E-03  2.062E-01 -2.589E-05 -7.824E-06 -1.403E-08  2.930E+02  2.932E+02
  4.000E-03  2.146E-01 -2.587E-05 -7.822E-06 -1.677E-08  2.930E+02  2.931E+02
  4.000E-03  2.230E-01 -2.586E-05 -7.821E-06 -2.000E-08  2.930E+02  2.930E+02
  4.000E-03  2.315E-01 -2.584E-05 -7.819E-06 -2.381E-08  2.930E+02  2.930E+02
  4.000E-03  2.399E-01 -2.582E-05 -7.817E-06 -2.832E-08  2.930E+02  2.930E+02
  4.000E-03  2.483E-01 -2.580E-05 -7.815E-06 -3.366E-08  2.930E+02  2.930E+02
  4.000E-03  2.567E-01 -2.577E-05 -7.812E-06 -3.998E-08  2.930E+02  2.930E+02
  4.000E-03  2.651E-01 -2.574E-05 -7.808E-06 -4.747E-08  2.930E+02  2.930E+02
  4.000E-03  2.735E-01 -2.570E-05 -7.804E-06 -5.634E-08  2.930E+02  2.930E+02
  4.000E-03  2.820E-01 -2.565E-05 -7.799E-06 -6.686E-08  2.930E+02  2.930E+02
  4.000E-03  2.904E-01 -2.559E-05 -7.793E-06 -7.933E-08  2.930E+02  2.930E+02
  4.000E-03  2.988E-01 -2.553E-05 -7.787E-06 -9.411E-08  2.930E+02  2.930E+02
  4.000E-03  3.072E-01 -2.545E-05 -7.778E-06 -1.116E-07  2.930E+02  2.930E+02
  4.000E-03  3.156E-01 -2.535E-05 -7.769E-06 -1.324E-07  2.930E+02  2.930E+02
  4.000E-03  3.240E-01 -2.524E-05 -7.757E-06 -1.571E-07  2.930E+02  2.930E+02
  4.000E-03  3.325E-01 -2.511E-05 -7.744E-06 -1.863E-07  2.930E+02  2.930E+02
  4.000E-03  3.409E-01 -2.495E-05 -7.728E-06 -2.210E-07  2.930E+02  2.930E+02
  4.000E-03  3.493E-01 -2.476E-05 -7.709E-06 -2.621E-07  2.930E+02  2.930E+02
  4.000E-03  3.577E-01 -2.454E-05 -7.687E-06 -3.109E-07  2.930E+02  2.930E+02
  4.000E-03  3.661E-01 -2.428E-05 -7.660E-06 -3.688E-07  2.930E+02  2.931E+02
  4.000E-03  3.745E-01 -2.397E-05 -7.628E-06 -4.375E-07  2.930E+02  2.931E+02
  4.000E-03  3.830E-01 -2.360E-05 -7.591E-06 -5.192E-07  2.930E+02  2.932E+02
  4.000E-03  3.914E-01 -2.316E-05 -7.546E-06 -6.164E-07  2.930E+02  2.934E+02
  4.000E-03  3.998E-01 -2.264E-05 -7.492E-06 -7.322E-07  2.930E+02  2.938E+02
  4.000E-03  4.082E-01 -2.202E-05 -7.427E-06 -8.703E-07  2.930E+02  2.945E+02
  4.000E-03  4.166E-01 -2.129E-05 -7.349E-06 -1.036E-06  2.930E+02  2.958E+02
  4.000E-03  4.250E-01 -2.041E-05 -7.253E-06 -1.235E-06  2.930E+02  2.979E+02
  4.000E-03  4.335E-01 -1.937E-05 -7.135E-06 -1.476E-06  2.930E+02  3.014E+02
  4.000E-03  4.419E-01 -1.812E-05 -6.986E-06 -1.772E-06  2.930E+02  3.070E+02
  4.000E-03  4.503E-01 -1.661E-05 -6.794E-06 -2.138E-06  2.930E+02  3.157E+02
  4.000E-03  4.587E-01 -1.479E-05 -6.537E-06 -2.596E-06  2.930E+02  3.285E+02
  4.000E-03  4.671E-01 -1.257E-05 -6.178E-06 -3.235E-06  2.930E+02  3.465E+02
  4.000E-03  4.755E-01 -9.759E-06 -5.671E-06 -4.124E-06  2.930E+02  3.707E+02
  4.000E-03  4.840E-01 -6.153E-06 -4.770E-06 -4.936E-06  2.930E+02  4.011E+02
  4.000E-03  4.924E-01 -2.063E-06 -2.863E-06 -4.365E-06  2.932E+02  4.372E+02
  4.000E-03  5.008E-01  6.628E-07  1.662E-07 -9.137E-07  3.033E+02  4.774E+02
  4.000E-03  5.050E-01  0.000E+00  0.000E+00 -9.137E-07  2.930E+02  2.930E+02
  1.200E-02  0.000E+00 -2.171E-05 -4.628E-06  0.000E+00  2.930E+02  2.930E+02
  1.200E-02  4.208E-03 -2.173E-05 -4.628E-06  2.588E-08  2.930E+02  2.931E+02
  1.200E-02  1.262E-02 -2.174E-05 -4.657E-06  1.940E-08  2.930E+02  2.933E+02
  1.200E-02  2.104E-02 -2.175E-05 -4.670E-06  1.809E-08  2.930E+02  2.936E+02
  1.200E-02  2.946E-02 -2.177E-05 -4.676E-06  1.502E-08  2.930E+02  2.942E+02
  1.200E-02  3.787E-02 -2.178E-05 -4.679E-06  1.180E-08  2.930E+02  2.951E+02
  1.200E-02  4.629E-02 -2.179E-05 -4.680E-06  9.281E-09  2.930E+02  2.965E+02
  1.200E-02  5.471E-02 -2.179E-05 -4.681E-06  7.351E-09  2.930E+02  2.988E+02
  1.200E-02  6.313E-02 -2.180E-05 -4.681E-06  5.821E-09  2.930E+02  3.022E+02
  1.200E-02  7.154E-02 -2.180E-05 -4.682E-06  4.561E-09  2.930E+02  3.068E+02
  1.200E-02  7.996E-02 -2.180E-05 -4.682E-06  3.490E-09  2.930E+02  3.125E+02
  1.200E-02  8.838E-02 -2.181E-05 -4.682E-06  2.555E-09  2.930E+02  3.186E+02
  1.200E-02  9.679E-02 -2.181E-05 -4.682E-06  1.712E-09  2.930E+02  3.237E+02
  1.200E-02  1.052E-01 -2.181E-05 -4.682E-06  9.258E-10  2.931E+02  3.257E+02
  1.200E-02  1.136E-01 -2.181E-05 -4.682E-06  1.713E-10  2.930E+02  3.237E+02
  1.200E-02  1.220E-01 -2.181E-05 -4.682E-06 -5.780E-10  2.930E+02  3.186E+02
  1.200E-02  1.305E-01 -2.181E-05 -4.682E-06 -1.344E-09  2.930E+02  3.125E+02
  1.200E-02  1.389E-01 -2.181E-05 -4.682E-06 -2.150E-09  2.930E+02  3.068E+02
  1.200E-02  1.473E-01 -2.181E-05 -4.682E-06 -3.021E-09  2.930E+02  3.022E+02
  1.200E-02  1.557E-01 -2.180E-05 -4.682E-06 -3.982E-09  2.930E+02  2.988E+02
  1.200E-02  1.641E-01 -2.180E-05 -4.681E-06 -5.060E-09  2.930E+02  2.965E+02
  1.200E-02  1.725E-01 -2.180E-05 -4.681E-06 -6.287E-09  2.930E+02  2.951E+02
  1.200E-02  1.810E-01 -2.179E-05 -4.681E-06 -7.700E-09  2.930E+02  2.942E+02
  1.200E-02  1.894E-01 -2.178E-05 -4.680E-06 -9.339E-09  2.930E+02  2.937E+02
  1.200E-02  1.978E-01 -2.178E-05 -4.679E-06 -1.125E-08  2.930E+02  2.934E+02
  1.200E-02  2.062E-01 -2.177E-05 -4.679E-06 -1.350E-08  2.930E+02  2.932E+02
  1.200E-02  2.146E-01 -2.176E-05 -4.678E-06 -1.613E-08  2.930E+02  2.931E+02
  1.200E-02  2.230E-01 -2.174E-05 -4.677E-06 -1.924E-08  2.930E+02  2.930E+02
  1.200E-02  2.315E-01 -2.173E-05 -4.676E-06 -2.292E-08  2.930E+02  2.930E+02
  1.200E-02  2.399E-01 -2.171E-05 -4.674E-06 -2.726E-08  2.930E+02  2.930E+02
  1.200E-02  2.483E-01 -2.168E-05 -4.672E-06 -3.241E-08  2.930E+02  2.930E+02
  1.200E-02  2.567E-01 -2.166E-05 -4.670E-06 -3.849E-08  2.930E+02  2.930E+02
  1.200E-02  2.651E-01 -2.163E-05 -4.668E-06 -4.571E-08  2.930E+02  2.930E+02
  1.200E-02  2.735E-01 -2.159E-05 -4.665E-06 -5.426E-08  2.930E+02  2.930E+02
  1.200E-02  2.820E-01 -2.154E-05 -4.661E-06 -6.439E-08  2.930E+02  2.930E+02
  1.200E-02  2.904E-01 -2.149E-05 -4.657E-06 -7.641E-08  2.930E+02  2.930E+02
  1.200E-02  2.988E-01 -2.143E-05 -4.652E-06 -9.065E-08  2.930E+02  2.930E+02
  1.200E-02  3.072E-01 -2.135E-05 -4.647E-06 -1.075E-07  2.930E+02  2.930E+02
  1.200E-02  3.156E-01 -2.126E-05 -4.640E-06 -1.276E-07  2.930E+02  2.930E+02
  1.200E-02  3.240E-01 -2.116E-05 -4.632E-06 -1.513E-07  2.930E+02  2.930E+02
  1.200E-02  3.325E-01 -2.103E-05 -4.622E-06 -1.795E-07  2.930E+02  2.930E+02
  1.200E-02  3.409E-01 -2.088E-05 -4.611E-06 -2.129E-07  2.930E+02  2.930E+02
  1.200E-02  3.493E-01 -2.071E-05 -4.597E-06 -2.525E-07  2.930E+02  2.930E+02
  1.200E-02  3.577E-01 -2.050E-05 -4.581E-06 -2.995E-07  2.930E+02  2.930E+02
  1.200E-02  3.661E-01 -2.025E-05 -4.562E-06 -3.553E-07  2.930E+02  2.931E+02
  1.200E-02  3.745E-01 -1.995E-05 -4.539E-06 -4.214E-07  2.930E+02  2.931E+02
  1.200E-02  3.830E-01 -1.960E-05 -4.512E-06 -5.000E-07  2.930E+02  2.932E+02
  1.200E-02  3.914E-01 -1.919E-05 -4.480E-06 -5.933E-07  2.930E+02  2.934E+02
  1.200E-02  3.998E-01 -1.870E-05 -4.441E-06 -7.043E-07  2.930E+02  2.938E+02
  1.200E-02  4.082E-01 -1.811E-05 -4.395E-06 -8.365E-07  2.930E+02  2.945E+02
  1.200E-02  4.166E-01 -1.742E-05 -4.339E-06 -9.942E-07  2.930E+02  2.957E+02
  1.200E-02  4.250E-01 -1.660E-05 -4.270E-06 -1.183E-06  2.930E+02  2.978E+02
  1.200E-02  4.335E-01 -1.561E-05 -4.185E-06 -1.410E-06  2.930E+02  3.013E+02
  1.200E-02  4.419E-01 -1.444E-05 -4.078E-06 -1.685E-06  2.930E+02  3.069E+02
  1.200E-02  4.503E-01 -1.304E-05 -3.940E-06 -2.018E-06  2.930E+02  3.156E+02
  1.200E-02  4.587E-01 -1.136E-05 -3.754E-06 -2.428E-06  2.930E+02  3.284E+02
  1.200E-02  4.671E-01 -9.331E-06 -3.500E-06 -2.985E-06  2.930E+02  3.464E+02
  1.200E-02  4.755E-01 -6.798E-06 -3.120E-06 -3.701E-06  2.930E+02  3.705E+02
  1.200E-02  4.840E-01 -3.673E-06 -2.454E-06 -4.031E-06  2.930E+02  4.010E+02
  1.200E-02  4.924E-01 -6.448E-07 -1.239E-06 -2.879E-06  2.932E+02  4.371E+02
  1.200E-02  5.008E-01  7.109E-07  1.068E-07  9.389E-09  3.033E+02  4.774E+02
  1.200E-02  5.050E-01  0.000E+00  0.000E+00  9.389E-09  2.930E+02  2.930E+02
  2.000E-02  0.000E+00 -1.906E-05 -3.596E-06  0.000E+00  2.930E+02  2.930E+02
  2.000E-02  4.208E-03 -1.907E-05 -3.596E-06  1.119E-08  2.930E+02  2.931E+02
  2.000E-02  1.262E-02 -1.907E-05 -3.603E-06  9.211E-09  2.930E+02  2.933E+02
  2.000E-02  2.104E-02 -1.908E-05 -3.610E-06  1.117E-08  2.930E+02  2.936E+02
  2.000E-02  2.946E-02 -1.909E-05 -3.615E-06  1.110E-08  2.930E+02  2.942E+02
  2.000E-02  3.787E-02 -1.910E-05 -3.617E-06  9.690E-09  2.930E+02  2.951E+02
  2.000E-02  4.629E-02 -1.911E-05 -3.619E-06  8.051E-09  2.930E+02  2.965E+02
  2.000E-02  5.471E-02 -1.911E-05 -3.620E-06  6.581E-09  2.930E+02  2.988E+02
  2.000E-02  6.313E-02 -1.912E-05 -3.621E-06  5.310E-09  2.930E+02  3.022E+02
  2.000E-02  7.154E-02 -1.912E-05 -3.621E-06  4.212E-09  2.930E+02  3.068E+02
  2.000E-02  7.996E-02 -1.912E-05 -3.622E-06  3.250E-09  2.930E+02  3.126E+02
  2.000E-02  8.838E-02 -1.912E-05 -3.622E-06  2.393E-09  2.930E+02  3.187E+02
  2.000E-02  9.679E-02 -1.913E-05 -3.622E-06  1.611E-09  2.930E+02  3.237E+02
  2.000E-02  1.052E-01 -1.913E-05 -3.622E-06  8.762E-10  2.931E+02  3.258E+02
  2.000E-02  1.136E-01 -1.913E-05 -3.622E-06  1.663E-10  2.930E+02  3.237E+02
  2.000E-02  1.220E-01 -1.913E-05 -3.622E-06 -5.395E-10  2.930E+02  3.187E+02
  2.000E-02  1.305E-01 -1.913E-05 -3.622E-06 -1.263E-09  2.930E+02  3.126E+02
  2.000E-02  1.389E-01 -1.912E-05 -3.622E-06 -2.024E-09  2.930E+02  3.068E+02
  2.000E-02  1.473E-01 -1.912E-05 -3.622E-06 -2.847E-09  2.930E+02  3.022E+02
  2.000E-02  1.557E-01 -1.912E-05 -3.622E-06 -3.756E-09  2.930E+02  2.988E+02
  2.000E-02  1.641E-01 -1.912E-05 -3.621E-06 -4.775E-09  2.930E+02  2.965E+02
  2.000E-02  1.725E-01 -1.911E-05 -3.621E-06 -5.935E-09  2.930E+02  2.951E+02
  2.000E-02  1.810E-01 -1.911E-05 -3.621E-06 -7.269E-09  2.930E+02  2.942E+02
  2.000E-02  1.894E-01 -1.910E-05 -3.620E-06 -8.818E-09  2.930E+02  2.937E+02
  2.000E-02  1.978E-01 -1.909E-05 -3.619E-06 -1.063E-08  2.930E+02  2.934E+02
  2.000E-02  2.062E-01 -1.909E-05 -3.618E-06 -1.275E-08  2.930E+02  2.932E+02
  2.000E-02  2.146E-01 -1.908E-05 -3.617E-06 -1.524E-08  2.930E+02  2.931E+02
  2.000E-02  2.230E-01 -1.906E-05 -3.616E-06 -1.818E-08  2.930E+02  2.930E+02
  2.000E-02  2.315E-01 -1.905E-05 -3.615E-06 -2.165E-08  2.930E+02  2.930E+02
  2.000E-02  2.399E-01 -1.903E-05 -3.613E-06 -2.576E-08  2.930E+02  2.930E+02
  2.000E-02  2.483E-01 -1.901E-05 -3.611E-06 -3.061E-08  2.930E+02  2.930E+02
  2.000E-02  2.567E-01 -1.898E-05 -3.609E-06 -3.637E-08  2.930E+02  2.930E+02
  2.000E-02  2.651E-01 -1.895E-05 -3.606E-06 -4.319E-08  2.930E+02  2.930E+02
  2.000E-02  2.735E-01 -1.892E-05 -3.602E-06 -5.126E-08  2.930E+02  2.930E+02
  2.000E-02  2.820E-01 -1.887E-05 -3.598E-06 -6.084E-08  2.930E+02  2.930E+02
  2.000E-02  2.904E-01 -1.882E-05 -3.594E-06 -7.219E-08  2.930E+02  2.930E+02
  2.000E-02  2.988E-01 -1.876E-05 -3.588E-06 -8.566E-08  2.930E+02  2.930E+02
  2.000E-02  3.072E-01 -1.869E-05 -3.581E-06 -1.016E-07  2.930E+02  2.930E+02
  2.000E-02  3.156E-01 -1.861E-05 -3.573E-06 -1.206E-07  2.930E+02  2.930E+02
  2.000E-02  3.240E-01 -1.851E-05 -3.564E-06 -1.430E-07  2.930E+02  2.930E+02
  2.000E-02  3.325E-01 -1.839E-05 -3.553E-06 -1.696E-07  2.930E+02  2.930E+02
  2.000E-02  3.409E-01 -1.825E-05 -3.539E-06 -2.012E-07  2.930E+02  2.930E+02
  2.000E-02  3.493E-01 -1.808E-05 -3.524E-06 -2.386E-07  2.930E+02  2.930E+02
  2.000E-02  3.577E-01 -1.789E-05 -3.505E-06 -2.830E-07  2.930E+02  2.930E+02
  2.000E-02  3.661E-01 -1.765E-05 -3.483E-06 -3.357E-07  2.930E+02  2.931E+02
  2.000E-02  3.745E-01 -1.737E-05 -3.456E-06 -3.981E-07  2.930E+02  2.931E+02
  2.000E-02  3.830E-01 -1.704E-05 -3.425E-06 -4.722E-07  2.930E+02  2.932E+02
  2.000E-02  3.914E-01 -1.665E-05 -3.387E-06 -5.601E-07  2.930E+02  2.934E+02
  2.000E-02  3.998E-01 -1.619E-05 -3.343E-06 -6.645E-07  2.930E+02  2.938E+02
  2.000E-02  4.082E-01 -1.564E-05 -3.289E-06 -7.884E-07  2.930E+02  2.945E+02
  2.000E-02  4.166E-01 -1.498E-05 -3.224E-06 -9.358E-07  2.930E+02  2.957E+02
  2.000E-02  4.250E-01 -1.421E-05 -3.145E-06 -1.111E-06  2.930E+02  2.978E+02
  2.000E-02  4.335E-01 -1.329E-05 -3.048E-06 -1.320E-06  2.930E+02  3.013E+02
  2.000E-02  4.419E-01 -1.219E-05 -2.927E-06 -1.571E-06  2.930E+02  3.068E+02
  2.000E-02  4.503E-01 -1.089E-05 -2.772E-06 -1.869E-06  2.930E+02  3.154E+02
  2.000E-02  4.587E-01 -9.338E-06 -2.568E-06 -2.226E-06  2.930E+02  3.281E+02
  2.000E-02  4.671E-01 -7.488E-06 -2.293E-06 -2.691E-06  2.930E+02  3.461E+02
  2.000E-02  4.755E-01 -5.225E-06 -1.882E-06 -3.207E-06  2.930E+02  3.702E+02
  2.000E-02  4.840E-01 -2.587E-06 -1.204E-06 -3.246E-06  2.930E+02  4.007E+02
  2.000E-02  4.924E-01 -2.731E-07 -3.171E-07 -2.032E-06  2.932E+02  4.369E+02
  2.000E-02  5.008E-01  4.997E-07  2.301E-07  1.321E-07  3.033E+02  4.773E+02
  2.000E-02  5.050E-01  0.000E+00  0.000E+00  1.321E-07  2.930E+02  2.930E+02
  2.800E-02  0.000E+00 -1.652E-05 -3.528E-06  0.000E+00  2.930E+02  2.930E+02
  2.800E-02  4.208E-03 -1.652E-05 -3.528E-06  7.499E-09  2.930E+02  2.931E+02
  2.800E-02  1.262E-02 -1.652E-05 -3.530E-06  5.983E-09  2.930E+02  2.933E+02
  2.800E-02  2.104E-02 -1.653E-05 -3.534E-06  7.285E-09  2.930E+02  2.936E+02
  2.800E-02  2.946E-02 -1.654E-05 -3.537E-06  7.949E-09  2.930E+02  2.942E+02
  2.800E-02  3.787E-02 -1.654E-05 -3.539E-06  7.539E-09  2.930E+02  2.951E+02
  2.800E-02  4.629E-02 -1.655E-05 -3.541E-06  6.632E-09  2.930E+02  2.965E+02
  2.800E-02  5.471E-02 -1.655E-05 -3.542E-06  5.621E-09  2.930E+02  2.988E+02
  2.800E-02  6.313E-02 -1.656E-05 -3.543E-06  4.644E-09  2.930E+02  3.022E+02
  2.800E-02  7.154E-02 -1.656E-05 -3.544E-06  3.741E-09  2.930E+02  3.068E+02
  2.800E-02  7.996E-02 -1.656E-05 -3.544E-06  2.917E-09  2.930E+02  3.126E+02
  2.800E-02  8.838E-02 -1.656E-05 -3.544E-06  2.162E-09  2.930E+02  3.187E+02
  2.800E-02  9.679E-02 -1.656E-05 -3.545E-06  1.460E-09  2.930E+02  3.237E+02
  2.800E-02  1.052E-01 -1.657E-05 -3.545E-06  7.955E-10  2.931E+02  3.258E+02
  2.800E-02  1.136E-01 -1.657E-05 -3.545E-06  1.481E-10  2.930E+02  3.237E+02
  2.800E-02  1.220E-01 -1.657E-05 -3.545E-06 -4.983E-10  2.930E+02  3.187E+02
  2.800E-02  1.305E-01 -1.656E-05 -3.545E-06 -1.162E-09  2.930E+02  3.126E+02
  2.800E-02  1.389E-01 -1.656E-05 -3.545E-06 -1.863E-09  2.930E+02  3.068E+02
  2.800E-02  1.473E-01 -1.656E-05 -3.544E-06 -2.621E-09  2.930E+02  3.022E+02
  2.800E-02  1.557E-01 -1.656E-05 -3.544E-06 -3.457E-09  2.930E+02  2.988E+02
  2.800E-02  1.641E-01 -1.656E-05 -3.544E-06 -4.396E-09  2.930E+02  2.965E+02
  2.800E-02  1.725E-01 -1.655E-05 -3.543E-06 -5.464E-09  2.930E+02  2.951E+02
  2.800E-02  1.810E-01 -1.655E-05 -3.543E-06 -6.694E-09  2.930E+02  2.942E+02
  2.800E-02  1.894E-01 -1.654E-05 -3.542E-06 -8.121E-09  2.930E+02  2.937E+02
  2.800E-02  1.978E-01 -1.654E-05 -3.541E-06 -9.787E-09  2.930E+02  2.934E+02
  2.800E-02  2.062E-01 -1.653E-05 -3.540E-06 -1.174E-08  2.930E+02  2.932E+02
  2.800E-02  2.146E-01 -1.652E-05 -3.538E-06 -1.404E-08  2.930E+02  2.931E+02
  2.800E-02  2.230E-01 -1.651E-05 -3.537E-06 -1.674E-08  2.930E+02  2.930E+02
  2.800E-02  2.315E-01 -1.649E-05 -3.535E-06 -1.994E-08  2.930E+02  2.930E+02
  2.800E-02  2.399E-01 -1.648E-05 -3.533E-06 -2.372E-08  2.930E+02  2.930E+02
  2.800E-02  2.483E-01 -1.646E-05 -3.530E-06 -2.820E-08  2.930E+02  2.930E+02
  2.800E-02  2.567E-01 -1.643E-05 -3.527E-06 -3.350E-08  2.930E+02  2.930E+02
  2.800E-02  2.651E-01 -1.641E-05 -3.523E-06 -3.978E-08  2.930E+02  2.930E+02
  2.800E-02  2.735E-01 -1.637E-05 -3.519E-06 -4.722E-08  2.930E+02  2.930E+02
  2.800E-02  2.820E-01 -1.633E-05 -3.513E-06 -5.604E-08  2.930E+02  2.930E+02
  2.800E-02  2.904E-01 -1.629E-05 -3.507E-06 -6.650E-08  2.930E+02  2.930E+02
  2.800E-02  2.988E-01 -1.623E-05 -3.500E-06 -7.890E-08  2.930E+02  2.930E+02
  2.800E-02  3.072E-01 -1.617E-05 -3.491E-06 -9.361E-08  2.930E+02  2.930E+02
  2.800E-02  3.156E-01 -1.609E-05 -3.480E-06 -1.110E-07  2.930E+02  2.930E+02
  2.800E-02  3.240E-01 -1.600E-05 -3.468E-06 -1.317E-07  2.930E+02  2.930E+02
  2.800E-02  3.325E-01 -1.589E-05 -3.453E-06 -1.562E-07  2.930E+02  2.930E+02
  2.800E-02  3.409E-01 -1.576E-05 -3.435E-06 -1.853E-07  2.930E+02  2.930E+02
  2.800E-02  3.493E-01 -1.560E-05 -3.415E-06 -2.198E-07  2.930E+02  2.930E+02
  2.800E-02  3.577E-01 -1.542E-05 -3.390E-06 -2.607E-07  2.930E+02  2.930E+02
  2.800E-02  3.661E-01 -1.521E-05 -3.361E-06 -3.091E-07  2.930E+02  2.931E+02
  2.800E-02  3.745E-01 -1.495E-05 -3.326E-06 -3.665E-07  2.930E+02  2.931E+02
  2.800E-02  3.830E-01 -1.465E-05 -3.285E-06 -4.346E-07  2.930E+02  2.932E+02
  2.800E-02  3.914E-01 -1.429E-05 -3.235E-06 -5.153E-07  2.930E+02  2.934E+02
  2.800E-02  3.998E-01 -1.386E-05 -3.177E-06 -6.108E-07  2.930E+02  2.938E+02
  2.800E-02  4.082E-01 -1.335E-05 -3.106E-06 -7.239E-07  2.930E+02  2.945E+02
  2.800E-02  4.166E-01 -1.275E-05 -3.022E-06 -8.578E-07  2.930E+02  2.957E+02
  2.800E-02  4.250E-01 -1.204E-05 -2.920E-06 -1.016E-06  2.930E+02  2.977E+02
  2.800E-02  4.335E-01 -1.120E-05 -2.795E-06 -1.203E-06  2.930E+02  3.011E+02
  2.800E-02  4.419E-01 -1.021E-05 -2.641E-06 -1.423E-06  2.930E+02  3.066E+02
  2.800E-02  4.503E-01 -9.030E-06 -2.447E-06 -1.677E-06  2.930E+02  3.151E+02
  2.800E-02  4.587E-01 -7.645E-06 -2.199E-06 -1.973E-06  2.930E+02  3.278E+02
  2.800E-02  4.671E-01 -6.016E-06 -1.873E-06 -2.334E-06  2.930E+02  3.457E+02
  2.800E-02  4.755E-01 -4.080E-06 -1.410E-06 -2.667E-06  2.930E+02  3.697E+02
  2.800E-02  4.840E-01 -1.942E-06 -7.505E-07 -2.545E-06  2.930E+02  4.002E+02
  2.800E-02  4.924E-01 -2.018E-07 -6.447E-08 -1.516E-06  2.932E+02  4.366E+02
  2.800E-02  5.008E-01  3.619E-07  1.677E-07  9.182E-08  3.033E+02  4.772E+02
  2.800E-02  5.050E-01  0.000E+00  0.000E+00  9.182E-08  2.930E+02  2.930E+02
  3.600E-02  0.000E+00 -1.395E-05 -3.561E-06  0.000E+00  2.930E+02  2.930E+02
  3.600E-02  4.208E-03 -1.395E-05 -3.561E-06  4.907E-09  2.930E+02  2.931E+02
  3.600E-02  1.262E-02 -1.395E-05 -3.563E-06  3.979E-09  2.930E+02  2.933E+02
  3.600E-02  2.104E-02 -1.396E-05 -3.565E-06  4.944E-09  2.930E+02  2.936E+02
  3.600E-02  2.946E-02 -1.396E-05 -3.567E-06  5.659E-09  2.930E+02  2.942E+02
  3.600E-02  3.787E-02 -1.397E-05 -3.569E-06  5.684E-09  2.930E+02  2.951E+02
  3.600E-02  4.629E-02 -1.397E-05 -3.571E-06  5.242E-09  2.930E+02  2.965E+02
  3.600E-02  5.471E-02 -1.397E-05 -3.572E-06  4.599E-09  2.930E+02  2.988E+02
  3.600E-02  6.313E-02 -1.398E-05 -3.573E-06  3.893E-09  2.930E+02  3.022E+02
  3.600E-02  7.154E-02 -1.398E-05 -3.573E-06  3.189E-09  2.930E+02  3.068E+02
  3.600E-02  7.996E-02 -1.398E-05 -3.574E-06  2.516E-09  2.930E+02  3.126E+02
  3.600E-02  8.838E-02 -1.398E-05 -3.574E-06  1.880E-09  2.930E+02  3.187E+02
  3.600E-02  9.679E-02 -1.399E-05 -3.575E-06  1.276E-09  2.930E+02  3.237E+02
  3.600E-02  1.052E-01 -1.399E-05 -3.575E-06  6.965E-10  2.931E+02  3.258E+02
  3.600E-02  1.136E-01 -1.399E-05 -3.575E-06  1.278E-10  2.930E+02  3.237E+02
  3.600E-02  1.220E-01 -1.399E-05 -3.575E-06 -4.434E-10  2.930E+02  3.187E+02
  3.600E-02  1.305E-01 -1.399E-05 -3.575E-06 -1.032E-09  2.930E+02  3.126E+02
  3.600E-02  1.389E-01 -1.399E-05 -3.574E-06 -1.654E-09  2.930E+02  3.068E+02
  3.600E-02  1.473E-01 -1.398E-05 -3.574E-06 -2.327E-09  2.930E+02  3.022E+02
  3.600E-02  1.557E-01 -1.398E-05 -3.574E-06 -3.071E-09  2.930E+02  2.988E+02
  3.600E-02  1.641E-01 -1.398E-05 -3.573E-06 -3.905E-09  2.930E+02  2.965E+02
  3.600E-02  1.725E-01 -1.398E-05 -3.573E-06 -4.855E-09  2.930E+02  2.951E+02
  3.600E-02  1.810E-01 -1.397E-05 -3.572E-06 -5.948E-09  2.930E+02  2.942E+02
  3.600E-02  1.894E-01 -1.397E-05 -3.571E-06 -7.217E-09  2.930E+02  2.937E+02
  3.600E-02  1.978E-01 -1.396E-05 -3.570E-06 -8.698E-09  2.930E+02  2.934E+02
  3.600E-02  2.062E-01 -1.395E-05 -3.568E-06 -1.043E-08  2.930E+02  2.932E+02
  3.600E-02  2.146E-01 -1.394E-05 -3.567E-06 -1.247E-08  2.930E+02  2.931E+02
  3.600E-02  2.230E-01 -1.393E-05 -3.565E-06 -1.488E-08  2.930E+02  2.930E+02
  3.600E-02  2.315E-01 -1.392E-05 -3.562E-06 -1.772E-08  2.930E+02  2.930E+02
  3.600E-02  2.399E-01 -1.391E-05 -3.560E-06 -2.109E-08  2.930E+02  2.930E+02
  3.600E-02  2.483E-01 -1.389E-05 -3.556E-06 -2.507E-08  2.930E+02  2.930E+02
  3.600E-02  2.567E-01 -1.387E-05 -3.552E-06 -2.978E-08  2.930E+02  2.930E+02
  3.600E-02  2.651E-01 -1.384E-05 -3.548E-06 -3.536E-08  2.930E+02  2.930E+02
  3.600E-02  2.735E-01 -1.382E-05 -3.542E-06 -4.198E-08  2.930E+02  2.930E+02
  3.600E-02  2.820E-01 -1.378E-05 -3.535E-06 -4.982E-08  2.930E+02  2.930E+02
  3.600E-02  2.904E-01 -1.374E-05 -3.528E-06 -5.912E-08  2.930E+02  2.930E+02
  3.600E-02  2.988E-01 -1.369E-05 -3.518E-06 -7.015E-08  2.930E+02  2.930E+02
  3.600E-02  3.072E-01 -1.363E-05 -3.507E-06 -8.322E-08  2.930E+02  2.930E+02
  3.600E-02  3.156E-01 -1.356E-05 -3.494E-06 -9.873E-08  2.930E+02  2.930E+02
  3.600E-02  3.240E-01 -1.348E-05 -3.479E-06 -1.171E-07  2.930E+02  2.930E+02
  3.600E-02  3.325E-01 -1.338E-05 -3.460E-06 -1.389E-07  2.930E+02  2.930E+02
  3.600E-02  3.409E-01 -1.327E-05 -3.438E-06 -1.648E-07  2.930E+02  2.930E+02
  3.600E-02  3.493E-01 -1.313E-05 -3.413E-06 -1.954E-07  2.930E+02  2.930E+02
  3.600E-02  3.577E-01 -1.297E-05 -3.382E-06 -2.317E-07  2.930E+02  2.930E+02
  3.600E-02  3.661E-01 -1.278E-05 -3.345E-06 -2.748E-07  2.930E+02  2.931E+02
  3.600E-02  3.745E-01 -1.255E-05 -3.302E-06 -3.257E-07  2.930E+02  2.931E+02
  3.600E-02  3.830E-01 -1.228E-05 -3.251E-06 -3.861E-07  2.930E+02  2.932E+02
  3.600E-02  3.914E-01 -1.196E-05 -3.190E-06 -4.575E-07  2.930E+02  2.934E+02
  3.600E-02  3.998E-01 -1.158E-05 -3.117E-06 -5.418E-07  2.930E+02  2.938E+02
  3.600E-02  4.082E-01 -1.113E-05 -3.030E-06 -6.413E-07  2.930E+02  2.944E+02
  3.600E-02  4.166E-01 -1.060E-05 -2.926E-06 -7.584E-07  2.930E+02  2.956E+02
  3.600E-02  4.250E-01 -9.976E-06 -2.802E-06 -8.956E-07  2.930E+02  2.976E+02
  3.600E-02  4.335E-01 -9.235E-06 -2.651E-06 -1.055E-06  2.930E+02  3.010E+02
  3.600E-02  4.419E-01 -8.364E-06 -2.467E-06 -1.240E-06  2.930E+02  3.064E+02
  3.600E-02  4.503E-01 -7.341E-06 -2.241E-06 -1.448E-06  2.930E+02  3.148E+02
  3.600E-02  4.587E-01 -6.151E-06 -1.959E-06 -1.680E-06  2.930E+02  3.273E+02
  3.600E-02  4.671E-01 -4.775E-06 -1.602E-06 -1.941E-06  2.930E+02  3.451E+02
  3.600E-02  4.755E-01 -3.186E-06 -1.130E-06 -2.140E-06  2.930E+02  3.691E+02
  3.600E-02  4.840E-01 -1.508E-06 -5.427E-07 -1.967E-06  2.930E+02  3.997E+02
  3.600E-02  4.924E-01 -1.891E-07 -3.006E-08 -1.159E-06  2.932E+02  4.362E+02
  3.600E-02  5.008E-01  2.544E-07  1.137E-07  3.401E-08  3.033E+02  4.771E+02
  3.600E-02  5.050E-01  0.000E+00  0.000E+00  3.401E-08  2.930E+02  2.930E+02
  4.400E-02  0.000E+00 -1.136E-05 -3.575E-06  0.000E+00  2.930E+02  2.930E+02
  4.400E-02  4.208E-03 -1.136E-05 -3.575E-06  3.070E-09  2.930E+02  2.931E+02
  4.400E-02  1.262E-02 -1.136E-05 -3.576E-06  2.604E-09  2.930E+02  2.933E+02
  4.400E-02  2.104E-02 -1.136E-05 -3.578E-06  3.365E-09  2.930E+02  2.936E+02
  4.400E-02  2.946E-02 -1.136E-05 -3.579E-06  3.998E-09  2.930E+02  2.942E+02
  4.400E-02  3.787E-02 -1.137E-05 -3.581E-06  4.181E-09  2.930E+02  2.951E+02
  4.400E-02  4.629E-02 -1.137E-05 -3.582E-06  4.001E-09  2.930E+02  2.965E+02
  4.400E-02  5.471E-02 -1.137E-05 -3.583E-06  3.614E-09  2.930E+02  2.988E+02
  4.400E-02  6.313E-02 -1.138E-05 -3.584E-06  3.127E-09  2.930E+02  3.022E+02
  4.400E-02  7.154E-02 -1.138E-05 -3.585E-06  2.603E-09  2.930E+02  3.068E+02
  4.400E-02  7.996E-02 -1.138E-05 -3.585E-06  2.078E-09  2.930E+02  3.126E+02