VARIABLES="XP","YP","P","U","V","TS","TF"
ZONE T="Zone 001"I=    82 J=    12 F=POINT
  0.000E+00  0.000E+00  1.019E+05  0.000E+00  0.000E+00  2.932E+02  2.932E+02
  0.000E+00  3.156E-03  1.019E+05  0.000E+00  0.000E+00  2.932E+02  2.932E+02
  0.000E+00  9.469E-03  1.019E+05  0.000E+00  0.000E+00  2.935E+02  2.935E+02
  0.000E+00  1.578E-02  1.019E+05  0.000E+00  0.000E+00  2.940E+02  2.939E+02
  0.000E+00  2.209E-02  1.019E+05  0.000E+00  0.000E+00  2.946E+02  2.945E+02
  0.000E+00  2.841E-02  1.019E+05  0.000E+00  0.000E+00  2.956E+02  2.954E+02
  0.000E+00  3.472E-02  1.019E+05  0.000E+00  0.000E+00  2.970E+02  2.968E+02
  0.000E+00  4.103E-02  1.018E+05  0.000E+00  0.000E+00  2.994E+02  2.991E+02
  0.000E+00  4.734E-02  1.018E+05  0.000E+00  0.000E+00  3.031E+02  3.026E+02
  0.000E+00  5.366E-02  1.018E+05  0.000E+00  0.000E+00  3.091E+02  3.083E+02
  0.000E+00  5.997E-02  1.018E+05  0.000E+00  0.000E+00  3.183E+02  3.171E+02
  0.000E+00  6.628E-02  1.018E+05  0.000E+00  0.000E+00  3.323E+02  3.306E+02
  0.000E+00  7.259E-02  1.018E+05  0.000E+00  0.000E+00  3.528E+02  3.502E+02
  0.000E+00  7.891E-02  1.018E+05  0.000E+00  0.000E+00  3.816E+02  3.781E+02
  0.000E+00  8.522E-02  1.018E+05  0.000E+00  0.000E+00  4.207E+02  4.161E+02
  0.000E+00  9.153E-02  1.018E+05  0.000E+00  0.000E+00  4.720E+02  4.662E+02
  0.000E+00  9.784E-02  1.018E+05  0.000E+00  0.000E+00  5.380E+02  5.311E+02
  0.000E+00  1.042E-01  1.018E+05  0.000E+00  0.000E+00  6.278E+02  6.256E+02
  0.000E+00  1.105E-01  1.018E+05  0.000E+00  0.000E+00  5.857E+02  5.896E+02
  0.000E+00  1.168E-01  1.017E+05  0.000E+00  0.000E+00  5.297E+02  5.358E+02
  0.000E+00  1.231E-01  1.017E+05  0.000E+00  0.000E+00  4.740E+02  4.807E+02
  0.000E+00  1.294E-01  1.017E+05  0.000E+00  0.000E+00  4.257E+02  4.319E+02
  0.000E+00  1.357E-01  1.017E+05  0.000E+00  0.000E+00  3.870E+02  3.923E+02
  0.000E+00  1.420E-01  1.017E+05  0.000E+00  0.000E+00  3.576E+02  3.618E+02
  0.000E+00  1.483E-01  1.017E+05  0.000E+00  0.000E+00  3.363E+02  3.395E+02
  0.000E+00  1.547E-01  1.017E+05  0.000E+00  0.000E+00  3.214E+02  3.237E+02
  0.000E+00  1.610E-01  1.017E+05  0.000E+00  0.000E+00  3.113E+02  3.129E+02
  0.000E+00  1.673E-01  1.017E+05  0.000E+00  0.000E+00  3.047E+02  3.057E+02
  0.000E+00  1.736E-01  1.017E+05  0.000E+00  0.000E+00  3.005E+02  3.011E+02
  0.000E+00  1.799E-01  1.017E+05  0.000E+00  0.000E+00  2.978E+02  2.982E+02
  0.000E+00  1.862E-01  1.017E+05  0.000E+00  0.000E+00  2.961E+02  2.964E+02
  0.000E+00  1.925E-01  1.017E+05  0.000E+00  0.000E+00  2.951E+02  2.953E+02
  0.000E+00  1.988E-01  1.016E+05  0.000E+00  0.000E+00  2.945E+02  2.946E+02
  0.000E+00  2.052E-01  1.016E+05  0.000E+00  0.000E+00  2.941E+02  2.942E+02
  0.000E+00  2.115E-01  1.016E+05  0.000E+00  0.000E+00  2.939E+02  2.939E+02
  0.000E+00  2.178E-01  1.016E+05  0.000E+00  0.000E+00  2.937E+02  2.938E+02
  0.000E+00  2.241E-01  1.016E+05  0.000E+00  0.000E+00  2.936E+02  2.937E+02
  0.000E+00  2.304E-01  1.016E+05  0.000E+00  0.000E+00  2.936E+02  2.936E+02
  0.000E+00  2.367E-01  1.016E+05  0.000E+00  0.000E+00  2.935E+02  2.935E+02
  0.000E+00  2.430E-01  1.016E+05  0.000E+00  0.000E+00  2.934E+02  2.935E+02
  0.000E+00  2.493E-01  1.016E+05  0.000E+00  0.000E+00  2.934E+02  2.934E+02
  0.000E+00  2.557E-01  1.016E+05  0.000E+00  0.000E+00  2.934E+02  2.934E+02
  0.000E+00  2.620E-01  1.016E+05  0.000E+00  0.000E+00  2.933E+02  2.933E+02
  0.000E+00  2.683E-01  1.016E+05  0.000E+00  0.000E+00  2.933E+02  2.933E+02
  0.000E+00  2.746E-01  1.016E+05  0.000E+00  0.000E+00  2.933E+02  2.933E+02
  0.000E+00  2.809E-01  1.016E+05  0.000E+00  0.000E+00  2.932E+02  2.933E+02
  0.000E+00  2.872E-01  1.016E+05  0.000E+00  0.000E+00  2.932E+02  2.932E+02
  0.000E+00  2.935E-01  1.015E+05  0.000E+00  0.000E+00  2.932E+02  2.932E+02
  0.000E+00  2.998E-01  1.015E+05  0.000E+00  0.000E+00  2.932E+02  2.932E+02
  0.000E+00  3.062E-01  1.015E+05  0.000E+00  0.000E+00  2.932E+02  2.932E+02
  0.000E+00  3.125E-01  1.015E+05  0.000E+00  0.000E+00  2.932E+02  2.932E+02
  0.000E+00  3.188E-01  1.015E+05  0.000E+00  0.000E+00  2.931E+02  2.931E+02
  0.000E+00  3.251E-01  1.015E+05  0.000E+00  0.000E+00  2.931E+02  2.931E+02
  0.000E+00  3.314E-01  1.015E+05  0.000E+00  0.000E+00  2.931E+02  2.931E+02
  0.000E+00  3.377E-01  1.015E+05  0.000E+00  0.000E+00  2.931E+02  2.931E+02
  0.000E+00  3.440E-01  1.015E+05  0.000E+00  0.000E+00  2.931E+02  2.931E+02
  0.000E+00  3.503E-01  1.015E+05  0.000E+00  0.000E+00  2.931E+02  2.931E+02
  0.000E+00  3.567E-01  1.015E+05  0.000E+00  0.000E+00  2.931E+02  2.931E+02
  0.000E+00  3.630E-01  1.015E+05  0.000E+00  0.000E+00  2.931E+02  2.931E+02
  0.000E+00  3.693E-01  1.015E+05  0.000E+00  0.000E+00  2.931E+02  2.931E+02
  0.000E+00  3.756E-01  1.015E+05  0.000E+00  0.000E+00  2.931E+02  2.931E+02
  0.000E+00  3.819E-01  1.015E+05  0.000E+00  0.000E+00  2.931E+02  2.931E+02
  0.000E+00  3.882E-01  1.014E+05  0.000E+00  0.000E+00  2.930E+02  2.930E+02
  0.000E+00  3.945E-01  1.014E+05  0.000E+00  0.000E+00  2.930E+02  2.930E+02
  0.000E+00  4.008E-01  1.014E+05  0.000E+00  0.000E+00  2.930E+02  2.930E+02
  0.000E+00  4.072E-01  1.014E+05  0.000E+00  0.000E+00  2.930E+02  2.930E+02
  0.000E+00  4.135E-01  1.014E+05  0.000E+00  0.000E+00  2.930E+02  2.930E+02
  0.000E+00  4.198E-01  1.014E+05  0.000E+00  0.000E+00  2.930E+02  2.930E+02
  0.000E+00  4.261E-01  1.014E+05  0.000E+00  0.000E+00  2.930E+02  2.930E+02
  0.000E+00  4.324E-01  1.014E+05  0.000E+00  0.000E+00  2.930E+02  2.930E+02
  0.000E+00  4.387E-01  1.014E+05  0.000E+00  0.000E+00  2.930E+02  2.930E+02
  0.000E+00  4.450E-01  1.014E+05  0.000E+00  0.000E+00  2.930E+02  2.930E+02
  0.000E+00  4.513E-01  1.014E+05  0.000E+00  0.000E+00  2.930E+02  2.930E+02
  0.000E+00  4.577E-01  1.014E+05  0.000E+00  0.000E+00  2.930E+02  2.930E+02
  0.000E+00  4.640E-01  1.014E+05  0.000E+00  0.000E+00  2.930E+02  2.930E+02
  0.000E+00  4.703E-01  1.014E+05  0.000E+00  0.000E+00  2.930E+02  2.930E+02
  0.000E+00  4.766E-01  1.014E+05  0.000E+00  0.000E+00  2.930E+02  2.930E+02
  0.000E+00  4.829E-01  1.013E+05  0.000E+00  0.000E+00  2.930E+02  2.930E+02
  0.000E+00  4.892E-01  1.013E+05  0.000E+00  0.000E+00  2.930E+02  2.930E+02
  0.000E+00  4.955E-01  1.013E+05  0.000E+00  0.000E+00  2.930E+02  2.930E+02
  0.000E+00  5.018E-01  1.013E+05  0.000E+00  0.000E+00  2.930E+02  2.930E+02
  0.000E+00  5.050E-01  1.013E+05  0.000E+00  0.000E+00  2.930E+02  2.930E+02
  1.417E-02  0.000E+00  1.019E+05  7.942E-06  6.500E-02  2.930E+02  2.932E+02
  1.417E-02  3.156E-03  1.019E+05  7.942E-06  5.075E-02  2.932E+02  2.932E+02
  1.417E-02  9.469E-03  1.019E+05  1.593E-05  5.585E-02  2.935E+02  2.935E+02
  1.417E-02  1.578E-02  1.019E+05  1.582E-05  5.625E-02  2.940E+02  2.939E+02
  1.417E-02  2.209E-02  1.019E+05  1.615E-05  5.626E-02  2.946E+02  2.945E+02
  1.417E-02  2.841E-02  1.019E+05  3.302E-05  5.627E-02  2.956E+02  2.954E+02
  1.417E-02  3.472E-02  1.019E+05  3.424E-05  5.636E-02  2.970E+02  2.968E+02
  1.417E-02  4.103E-02  1.018E+05  5.161E-05  5.643E-02  2.994E+02  2.991E+02
  1.417E-02  4.734E-02  1.018E+05  7.169E-05  5.656E-02  3.031E+02  3.026E+02
  1.417E-02  5.366E-02  1.018E+05  1.003E-04  5.672E-02  3.091E+02  3.083E+02
  1.417E-02  5.997E-02  1.018E+05  1.202E-04  5.692E-02  3.183E+02  3.171E+02
  1.417E-02  6.628E-02  1.018E+05  1.285E-04  5.716E-02  3.323E+02  3.306E+02
  1.417E-02  7.259E-02  1.018E+05  1.181E-04  5.745E-02  3.528E+02  3.502E+02
  1.417E-02  7.891E-02  1.018E+05  9.075E-05  5.786E-02  3.816E+02  3.781E+02
  1.417E-02  8.522E-02  1.018E+05  5.723E-05  5.839E-02  4.207E+02  4.161E+02
  1.417E-02  9.153E-02  1.018E+05  1.972E-05  5.943E-02  4.720E+02  4.662E+02
  1.417E-02  9.784E-02  1.018E+05 -1.503E-05  6.099E-02  5.380E+02  5.311E+02
  1.417E-02  1.042E-01  1.018E+05 -6.005E-06  5.897E-02  6.278E+02  6.256E+02
  1.417E-02  1.105E-01  1.018E+05 -1.444E-06  5.971E-02  5.857E+02  5.896E+02
  1.417E-02  1.168E-01  1.017E+05 -6.546E-05  5.813E-02  5.297E+02  5.358E+02
  1.417E-02  1.231E-01  1.017E+05 -1.258E-04  5.722E-02  4.740E+02  4.807E+02
  1.417E-02  1.294E-01  1.017E+05 -1.541E-04  5.688E-02  4.257E+02  4.319E+02
  1.417E-02  1.357E-01  1.017E+05 -1.483E-04  5.664E-02  3.870E+02  3.923E+02
  1.417E-02  1.420E-01  1.017E+05 -1.047E-04  5.647E-02  3.576E+02  3.618E+02
  1.417E-02  1.483E-01  1.017E+05 -5.604E-05  5.647E-02  3.363E+02  3.395E+02
  1.417E-02  1.547E-01  1.017E+05 -4.724E-05  5.644E-02  3.214E+02  3.237E+02
  1.417E-02  1.610E-01  1.017E+05 -4.931E-05  5.637E-02  3.113E+02  3.129E+02
  1.417E-02  1.673E-01  1.017E+05 -4.134E-05  5.630E-02  3.047E+02  3.057E+02
  1.417E-02  1.736E-01  1.017E+05 -2.373E-05  5.626E-02  3.005E+02  3.011E+02
  1.417E-02  1.799E-01  1.017E+05 -1.393E-05  5.622E-02  2.978E+02  2.982E+02
  1.417E-02  1.862E-01  1.017E+05 -5.694E-06  5.618E-02  2.961E+02  2.964E+02
  1.417E-02  1.925E-01  1.017E+05 -5.352E-06  5.615E-02  2.951E+02  2.953E+02
  1.417E-02  1.988E-01  1.016E+05  2.804E-06  5.614E-02  2.945E+02  2.946E+02
  1.417E-02  2.052E-01  1.016E+05  2.795E-06  5.614E-02  2.941E+02  2.942E+02
  1.417E-02  2.115E-01  1.016E+05  2.058E-06  5.613E-02  2.939E+02  2.939E+02
  1.417E-02  2.178E-01  1.016E+05  1.626E-06  5.612E-02  2.937E+02  2.938E+02
  1.417E-02  2.241E-01  1.016E+05  1.247E-06  5.611E-02  2.936E+02  2.937E+02
  1.417E-02  2.304E-01  1.016E+05  9.299E-07  5.611E-02  2.936E+02  2.936E+02
  1.417E-02  2.367E-01  1.016E+05  6.908E-07  5.611E-02  2.935E+02  2.935E+02
  1.417E-02  2.430E-01  1.016E+05  4.719E-07  5.611E-02  2.934E+02  2.935E+02
  1.417E-02  2.493E-01  1.016E+05  3.957E-07  5.610E-02  2.934E+02  2.934E+02
  1.417E-02  2.557E-01  1.016E+05  3.160E-07  5.611E-02  2.934E+02  2.934E+02
  1.417E-02  2.620E-01  1.016E+05  2.294E-07  5.611E-02  2.933E+02  2.933E+02
  1.417E-02  2.683E-01  1.016E+05  1.772E-07  5.611E-02  2.933E+02  2.933E+02
  1.417E-02  2.746E-01  1.016E+05  1.315E-07  5.611E-02  2.933E+02  2.933E+02
  1.417E-02  2.809E-01  1.016E+05  1.309E-07  5.611E-02  2.932E+02  2.933E+02
  1.417E-02  2.872E-01  1.016E+05  7.468E-08  5.611E-02  2.932E+02  2.932E+02
  1.417E-02  2.935E-01  1.015E+05  2.357E-08  5.611E-02  2.932E+02  2.932E+02
  1.417E-02  2.998E-01  1.015E+05 -2.518E-08  5.610E-02  2.932E+02  2.932E+02
  1.417E-02  3.062E-01  1.015E+05 -2.739E-08  5.610E-02  2.932E+02  2.932E+02
  1.417E-02  3.125E-01  1.015E+05 -2.471E-08  5.611E-02  2.932E+02  2.932E+02
  1.417E-02  3.188E-01  1.015E+05 -5.141E-08  5.612E-02  2.931E+02  2.931E+02
  1.417E-02  3.251E-01  1.015E+05 -7.409E-08  5.611E-02  2.931E+02  2.931E+02
  1.417E-02  3.314E-01  1.015E+05 -5.139E-08  5.611E-02  2.931E+02  2.931E+02
  1.417E-02  3.377E-01  1.015E+05 -2.135E-08  5.611E-02  2.931E+02  2.931E+02
  1.417E-02  3.440E-01  1.015E+05 -6.019E-09  5.611E-02  2.931E+02  2.931E+02
  1.417E-02  3.503E-01  1.015E+05  5.939E-09  5.610E-02  2.931E+02  2.931E+02
  1.417E-02  3.567E-01  1.015E+05  1.466E-08  5.610E-02  2.931E+02  2.931E+02
  1.417E-02  3.630E-01  1.015E+05  2.214E-08  5.611E-02  2.931E+02  2.931E+02
  1.417E-02  3.693E-01  1.015E+05  2.843E-08  5.612E-02  2.931E+02  2.931E+02
  1.417E-02  3.756E-01  1.015E+05  3.538E-08  5.611E-02  2.931E+02  2.931E+02
  1.417E-02  3.819E-01  1.015E+05  4.376E-08  5.611E-02  2.931E+02  2.931E+02
  1.417E-02  3.882E-01  1.014E+05  5.025E-08  5.612E-02  2.930E+02  2.930E+02
  1.417E-02  3.945E-01  1.014E+05  7.427E-08  5.611E-02  2.930E+02  2.930E+02
  1.417E-02  4.008E-01  1.014E+05  5.588E-08  5.610E-02  2.930E+02  2.930E+02
  1.417E-02  4.072E-01  1.014E+05  5.818E-08  5.611E-02  2.930E+02  2.930E+02
  1.417E-02  4.135E-01  1.014E+05  6.563E-08  5.612E-02  2.930E+02  2.930E+02
  1.417E-02  4.198E-01  1.014E+05  8.218E-08  5.611E-02  2.930E+02  2.930E+02
  1.417E-02  4.261E-01  1.014E+05  1.148E-07  5.611E-02  2.930E+02  2.930E+02
  1.417E-02  4.324E-01  1.014E+05  1.291E-07  5.611E-02  2.930E+02  2.930E+02
  1.417E-02  4.387E-01  1.014E+05  3.607E-07  5.611E-02  2.930E+02  2.930E+02
  1.417E-02  4.450E-01  1.014E+05 -5.514E-07  5.612E-02  2.930E+02  2.930E+02
  1.417E-02  4.513E-01  1.014E+05 -9.118E-06  5.611E-02  2.930E+02  2.930E+02
  1.417E-02  4.577E-01  1.014E+05 -5.843E-07  5.610E-02  2.930E+02  2.930E+02
  1.417E-02  4.640E-01  1.014E+05  3.560E-07  5.611E-02  2.930E+02  2.930E+02
  1.417E-02  4.703E-01  1.014E+05  1.231E-07  5.610E-02  2.930E+02  2.930E+02
  1.417E-02  4.766E-01  1.014E+05  1.052E-07  5.614E-02  2.930E+02  2.930E+02
  1.417E-02  4.829E-01  1.013E+05  6.856E-08  5.609E-02  2.930E+02  2.930E+02
  1.417E-02  4.892E-01  1.013E+05  4.662E-08  5.575E-02  2.930E+02  2.930E+02
  1.417E-02  4.955E-01  1.013E+05  2.862E-08  5.796E-02  2.930E+02  2.930E+02
  1.417E-02  5.018E-01  1.013E+05  1.881E-08  6.500E-02  2.930E+02  2.930E+02
  1.417E-02  5.050E-01  1.013E+05  1.881E-08  6.500E-02  2.930E+02  2.930E+02
  4.252E-02  0.000E+00  1.019E+05 -3.220E-06  6.500E-02  2.930E+02  2.932E+02
  4.252E-02  3.156E-03  1.019E+05 -3.220E-06  5.079E-02  2.932E+02  2.932E+02
  4.252E-02  9.469E-03  1.019E+05 -2.060E-06  5.585E-02  2.935E+02  2.935E+02
  4.252E-02  1.578E-02  1.019E+05 -8.684E-07  5.625E-02  2.940E+02  2.939E+02
  4.252E-02  2.209E-02  1.019E+05 -4.517E-07  5.627E-02  2.946E+02  2.945E+02
  4.252E-02  2.841E-02  1.019E+05 -6.109E-07  5.628E-02  2.956E+02  2.954E+02
  4.252E-02  3.472E-02  1.019E+05 -1.590E-06  5.638E-02  2.970E+02  2.968E+02
  4.252E-02  4.103E-02  1.018E+05 -1.723E-06  5.647E-02  2.994E+02  2.990E+02
  4.252E-02  4.734E-02  1.018E+05 -2.661E-06  5.662E-02  3.031E+02  3.026E+02
  4.252E-02  5.366E-02  1.018E+05 -1.987E-06  5.678E-02  3.090E+02  3.083E+02
  4.252E-02  5.997E-02  1.018E+05  2.778E-06  5.696E-02  3.183E+02  3.171E+02
  4.252E-02  6.628E-02  1.018E+05  7.100E-06  5.716E-02  3.322E+02  3.304E+02
  4.252E-02  7.259E-02  1.018E+05  7.868E-06  5.740E-02  3.526E+02  3.500E+02
  4.252E-02  7.891E-02  1.018E+05  9.469E-06  5.779E-02  3.813E+02  3.778E+02
  4.252E-02  8.522E-02  1.018E+05  1.359E-05  5.829E-02  4.204E+02  4.158E+02
  4.252E-02  9.153E-02  1.018E+05  1.229E-05  5.932E-02  4.717E+02  4.659E+02
  4.252E-02  9.784E-02  1.018E+05  6.161E-06  6.093E-02  5.376E+02  5.307E+02
  4.252E-02  1.042E-01  1.018E+05  6.559E-06  5.899E-02  6.273E+02  6.250E+02
  4.252E-02  1.105E-01  1.018E+05  1.583E-05  5.962E-02  5.858E+02  5.896E+02
  4.252E-02  1.168E-01  1.017E+05  1.988E-05  5.796E-02  5.299E+02  5.360E+02
  4.252E-02  1.231E-01  1.017E+05  1.059E-05  5.709E-02  4.742E+02  4.809E+02
  4.252E-02  1.294E-01  1.017E+05 -2.914E-06  5.685E-02  4.258E+02  4.320E+02
  4.252E-02  1.357E-01  1.017E+05 -1.169E-05  5.672E-02  3.870E+02  3.923E+02
  4.252E-02  1.420E-01  1.017E+05 -1.274E-05  5.660E-02  3.576E+02  3.618E+02
  4.252E-02  1.483E-01  1.017E+05 -1.038E-05  5.654E-02  3.363E+02  3.394E+02
  4.252E-02  1.547E-01  1.017E+05 -1.054E-05  5.644E-02  3.214E+02  3.237E+02
  4.252E-02  1.610E-01  1.017E+05 -1.183E-05  5.636E-02  3.113E+02  3.129E+02
  4.252E-02  1.673E-01  1.017E+05 -9.788E-06  5.632E-02  3.047E+02  3.057E+02
  4.252E-02  1.736E-01  1.017E+05 -6.979E-06  5.629E-02  3.005E+02  3.011E+02
  4.252E-02  1.799E-01  1.017E+05 -5.678E-06  5.624E-02  2.978E+02  2.982E+02
  4.252E-02  1.862E-01  1.017E+05 -2.940E-06  5.619E-02  2.962E+02  2.964E+02
  4.252E-02  1.925E-01  1.017E+05 -7.375E-09  5.616E-02  2.951E+02  2.953E+02
  4.252E-02  1.988E-01  1.016E+05  6.231E-07  5.615E-02  2.945E+02  2.946E+02
  4.252E-02  2.052E-01  1.016E+05  4.857E-07  5.613E-02  2.942E+02  2.942E+02
  4.252E-02  2.115E-01  1.016E+05  4.965E-07  5.613E-02  2.939E+02  2.940E+02
  4.252E-02  2.178E-01  1.016E+05  4.658E-07  5.612E-02  2.938E+02  2.938E+02
  4.252E-02  2.241E-01  1.016E+05  4.453E-07  5.611E-02  2.936E+02  2.937E+02
  4.252E-02  2.304E-01  1.016E+05  3.528E-07  5.611E-02  2.936E+02  2.936E+02
  4.252E-02  2.367E-01  1.016E+05  2.962E-07  5.611E-02  2.935E+02  2.935E+02
  4.252E-02  2.430E-01  1.016E+05  1.697E-07  5.610E-02  2.934E+02  2.935E+02
  4.252E-02  2.493E-01  1.016E+05  1.618E-07  5.610E-02  2.934E+02  2.934E+02
  4.252E-02  2.557E-01  1.016E+05  1.412E-07  5.611E-02  2.934E+02  2.934E+02
  4.252E-02  2.620E-01  1.016E+05  1.554E-07  5.611E-02  2.933E+02  2.933E+02
  4.252E-02  2.683E-01  1.016E+05  1.347E-07  5.611E-02  2.933E+02  2.933E+02
  4.252E-02  2.746E-01  1.016E+05  1.610E-07  5.611E-02  2.933E+02  2.933E+02
  4.252E-02  2.809E-01  1.016E+05  1.597E-07  5.611E-02  2.932E+02  2.933E+02
  4.252E-02  2.872E-01  1.016E+05  3.648E-07  5.611E-02  2.932E+02  2.932E+02
  4.252E-02  2.935E-01  1.015E+05 -5.693E-07  5.611E-02  2.932E+02  2.932E+02
  4.252E-02  2.998E-01  1.015E+05 -1.859E-06  5.610E-02  2.932E+02  2.932E+02
  4.252E-02  3.062E-01  1.015E+05 -6.461E-07  5.610E-02  2.932E+02  2.932E+02
  4.252E-02  3.125E-01  1.015E+05  5.487E-07  5.611E-02  2.932E+02  2.932E+02
  4.252E-02  3.188E-01  1.015E+05 -6.073E-07  5.612E-02  2.931E+02  2.931E+02
  4.252E-02  3.251E-01  1.015E+05 -1.922E-06  5.611E-02  2.931E+02  2.931E+02
  4.252E-02  3.314E-01  1.015E+05 -7.075E-07  5.611E-02  2.931E+02  2.931E+02
  4.252E-02  3.377E-01  1.015E+05  2.961E-07  5.611E-02  2.931E+02  2.931E+02
  4.252E-02  3.440E-01  1.015E+05  1.592E-07  5.611E-02  2.931E+02  2.931E+02
  4.252E-02  3.503E-01  1.015E+05  1.358E-07  5.610E-02  2.931E+02  2.931E+02
  4.252E-02  3.567E-01  1.015E+05  1.187E-07  5.611E-02  2.931E+02  2.931E+02
  4.252E-02  3.630E-01  1.015E+05  1.061E-07  5.611E-02  2.931E+02  2.931E+02
  4.252E-02  3.693E-01  1.015E+05  9.589E-08  5.612E-02  2.931E+02  2.931E+02
  4.252E-02  3.756E-01  1.015E+05  1.078E-07  5.611E-02  2.931E+02  2.931E+02
  4.252E-02  3.819E-01  1.015E+05  8.157E-08  5.611E-02  2.931E+02  2.931E+02
  4.252E-02  3.882E-01  1.014E+05  7.037E-08  5.612E-02  2.930E+02  2.930E+02
  4.252E-02  3.945E-01  1.014E+05  7.218E-08  5.611E-02  2.930E+02  2.930E+02
  4.252E-02  4.008E-01  1.014E+05  1.583E-08  5.610E-02  2.930E+02  2.930E+02
  4.252E-02  4.072E-01  1.014E+05 -1.425E-08  5.611E-02  2.930E+02  2.930E+02
  4.252E-02  4.135E-01  1.014E+05  6.548E-09  5.612E-02  2.930E+02  2.930E+02
  4.252E-02  4.198E-01  1.014E+05  4.108E-08  5.611E-02  2.930E+02  2.930E+02
  4.252E-02  4.261E-01  1.014E+05  7.238E-08  5.611E-02  2.930E+02  2.930E+02
  4.252E-02  4.324E-01  1.014E+05  7.678E-08  5.611E-02  2.930E+02  2.930E+02
  4.252E-02  4.387E-01  1.014E+05  2.889E-07  5.611E-02  2.930E+02  2.930E+02
  4.252E-02  4.450E-01  1.014E+05 -6.622E-07  5.611E-02  2.930E+02  2.930E+02
  4.252E-02  4.513E-01  1.014E+05 -1.933E-06  5.611E-02  2.930E+02  2.930E+02
  4.252E-02  4.577E-01  1.014E+05 -6.695E-07  5.611E-02  2.930E+02  2.930E+02
  4.252E-02  4.640E-01  1.014E+05  2.862E-07  5.612E-02  2.930E+02  2.930E+02
  4.252E-02  4.703E-01  1.014E+05  7.595E-08  5.610E-02  2.930E+02  2.930E+02
  4.252E-02  4.766E-01  1.014E+05  7.460E-08  5.614E-02  2.930E+02  2.930E+02
  4.252E-02  4.829E-01  1.013E+05  4.865E-08  5.609E-02  2.930E+02  2.930E+02
  4.252E-02  4.892E-01  1.013E+05  3.400E-08  5.575E-02  2.930E+02  2.930E+02
  4.252E-02  4.955E-01  1.013E+05  2.108E-08  5.796E-02  2.930E+02  2.930E+02
  4.252E-02  5.018E-01  1.013E+05  1.384E-08  6.500E-02  2.930E+02  2.930E+02
  4.252E-02  5.050E-01  1.013E+05  1.384E-08  6.500E-02  2.930E+02  2.930E+02
  7.087E-02  0.000E+00  1.019E+05 -1.776E-06  6.500E-02  2.930E+02  2.932E+02
  7.087E-02  3.156E-03  1.019E+05 -1.776E-06  5.079E-02  2.932E+02  2.932E+02
  7.087E-02  9.469E-03  1.019E+05 -2.684E-06  5.586E-02  2.935E+02  2.935E+02
  7.087E-02  1.578E-02  1.019E+05 -3.200E-06  5.625E-02  2.940E+02  2.939E+02
  7.087E-02  2.209E-02  1.019E+05 -3.317E-06  5.626E-02  2.946E+02  2.945E+02
  7.087E-02  2.841E-02  1.019E+05 -5.495E-06  5.626E-02  2.956E+02  2.954E+02
  7.087E-02  3.472E-02  1.019E+05 -8.400E-06  5.636E-02  2.970E+02  2.968E+02
  7.087E-02  4.103E-02  1.018E+05 -1.025E-05  5.643E-02  2.994E+02  2.991E+02
  7.087E-02  4.734E-02  1.018E+05 -1.043E-05  5.655E-02  3.031E+02  3.026E+02
  7.087E-02  5.366E-02  1.018E+05 -9.203E-06  5.674E-02  3.091E+02  3.083E+02
  7.087E-02  5.997E-02  1.018E+05 -6.047E-06  5.697E-02  3.183E+02  3.171E+02
  7.087E-02  6.628E-02  1.018E+05 -3.368E-06  5.720E-02  3.323E+02  3.305E+02
  7.087E-02  7.259E-02  1.018E+05 -3.241E-06  5.748E-02  3.527E+02  3.501E+02
  7.087E-02  7.891E-02  1.018E+05 -5.163E-06  5.794E-02  3.814E+02  3.779E+02
  7.087E-02  8.522E-02  1.018E+05 -1.343E-05  5.848E-02  4.205E+02  4.159E+02
  7.087E-02  9.153E-02  1.018E+05 -2.981E-05  5.944E-02  4.719E+02  4.661E+02
  7.087E-02  9.784E-02  1.018E+05 -4.675E-05  6.101E-02  5.380E+02  5.310E+02
  7.087E-02  1.042E-01  1.018E+05 -4.611E-05  5.908E-02  6.276E+02  6.255E+02
  7.087E-02  1.105E-01  1.018E+05 -2.157E-05  5.980E-02  5.857E+02  5.896E+02
  7.087E-02  1.168E-01  1.017E+05  1.916E-05  5.811E-02  5.297E+02  5.358E+02
  7.087E-02  1.231E-01  1.017E+05  4.304E-05  5.710E-02  4.741E+02  4.808E+02
  7.087E-02  1.294E-01  1.017E+05  4.530E-05  5.676E-02  4.258E+02  4.320E+02
  7.087E-02  1.357E-01  1.017E+05  3.810E-05  5.659E-02  3.871E+02  3.923E+02
  7.087E-02  1.420E-01  1.017E+05  2.833E-05  5.648E-02  3.577E+02  3.619E+02
  7.087E-02  1.483E-01  1.017E+05  1.972E-05  5.648E-02  3.364E+02  3.395E+02
  7.087E-02  1.547E-01  1.017E+05  1.457E-05  5.642E-02  3.214E+02  3.237E+02
  7.087E-02  1.610E-01  1.017E+05  1.004E-05  5.637E-02  3.114E+02  3.129E+02
  7.087E-02  1.673E-01  1.017E+05  6.342E-06  5.632E-02  3.047E+02  3.058E+02
  7.087E-02  1.736E-01  1.017E+05  2.969E-06  5.628E-02  3.005E+02  3.011E+02
  7.087E-02  1.799E-01  1.017E+05 -9.016E-07  5.624E-02  2.978E+02  2.982E+02
  7.087E-02  1.862E-01  1.017E+05 -1.272E-06  5.620E-02  2.962E+02  2.964E+02
  7.087E-02  1.925E-01  1.017E+05 -9.389E-07  5.617E-02  2.952E+02  2.953E+02
  7.087E-02  1.988E-01  1.016E+05 -2.361E-06  5.614E-02  2.945E+02  2.946E+02
  7.087E-02  2.052E-01  1.016E+05 -2.554E-06  5.614E-02  2.942E+02  2.942E+02
  7.087E-02  2.115E-01  1.016E+05 -1.942E-06  5.613E-02  2.939E+02  2.940E+02
  7.087E-02  2.178E-01  1.016E+05 -1.588E-06  5.612E-02  2.938E+02  2.938E+02
  7.087E-02  2.241E-01  1.016E+05 -1.246E-06  5.611E-02  2.936E+02  2.937E+02
  7.087E-02  2.304E-01  1.016E+05 -1.011E-06  5.611E-02  2.936E+02  2.936E+02
  7.087E-02  2.367E-01  1.016E+05 -8.678E-07  5.611E-02  2.935E+02  2.935E+02
  7.087E-02  2.430E-01  1.016E+05 -7.066E-07  5.611E-02  2.934E+02  2.935E+02
  7.087E-02  2.493E-01  1.016E+05 -6.331E-07  5.610E-02  2.934E+02  2.934E+02
  7.087E-02  2.557E-01  1.016E+05 -5.204E-07  5.611E-02  2.934E+02  2.934E+02
  7.087E-02  2.620E-01  1.016E+05 -3.786E-07  5.611E-02  2.933E+02  2.933E+02
  7.087E-02  2.683E-01  1.016E+05 -2.854E-07  5.611E-02  2.933E+02  2.933E+02
  7.087E-02  2.746E-01  1.016E+05 -1.932E-07  5.611E-02  2.933E+02  2.933E+02
  7.087E-02  2.809E-01  1.016E+05 -1.593E-07  5.611E-02  2.933E+02  2.933E+02
  7.087E-02  2.872E-01  1.016E+05  6.636E-08  5.611E-02  2.932E+02  2.932E+02
  7.087E-02  2.935E-01  1.015E+05 -9.025E-07  5.610E-02  2.932E+02  2.932E+02
  7.087E-02  2.998E-01  1.015E+05 -2.192E-06  5.610E-02  2.932E+02  2.932E+02
  7.087E-02  3.062E-01  1.015E+05 -9.768E-07  5.611E-02  2.932E+02  2.932E+02
  7.087E-02  3.125E-01  1.015E+05  2.151E-07  5.611E-02  2.932E+02  2.932E+02
  7.087E-02  3.188E-01  1.015E+05 -8.959E-07  5.610E-02  2.931E+02  2.931E+02
  7.087E-02  3.251E-01  1.015E+05 -2.163E-06  5.610E-02  2.931E+02  2.931E+02
  7.087E-02  3.314E-01  1.015E+05 -8.860E-07  5.612E-02  2.931E+02  2.931E+02
  7.087E-02  3.377E-01  1.015E+05  1.002E-07  5.612E-02  2.931E+02  2.931E+02
  7.087E-02  3.440E-01  1.015E+05 -4.822E-08  5.611E-02  2.931E+02  2.931E+02
  7.087E-02  3.503E-01  1.015E+05  2.877E-08  5.610E-02  2.931E+02  2.931E+02
  7.087E-02  3.567E-01  1.015E+05  9.097E-08  5.610E-02  2.931E+02  2.931E+02
  7.087E-02  3.630E-01  1.015E+05  1.043E-07  5.611E-02  2.931E+02  2.931E+02
  7.087E-02  3.693E-01  1.015E+05  6.064E-08  5.612E-02  2.931E+02  2.931E+02
  7.087E-02  3.756E-01  1.015E+05  5.950E-08  5.611E-02  2.931E+02  2.931E+02
  7.087E-02  3.819E-01  1.015E+05  2.924E-07  5.611E-02  2.931E+02  2.931E+02
  7.087E-02  3.882E-01  1.014E+05 -6.451E-07  5.612E-02  2.930E+02  2.930E+02
  7.087E-02  3.945E-01  1.014E+05 -1.927E-06  5.611E-02  2.930E+02  2.930E+02
  7.087E-02  4.008E-01  1.014E+05 -6.915E-07  5.610E-02  2.930E+02  2.930E+02
  7.087E-02  4.072E-01  1.014E+05  2.140E-07  5.611E-02  2.930E+02  2.930E+02
  7.087E-02  4.135E-01  1.014E+05  1.205E-08  5.612E-02  2.930E+02  2.930E+02
  7.087E-02  4.198E-01  1.014E+05  2.646E-08  5.611E-02  2.930E+02  2.930E+02
  7.087E-02  4.261E-01  1.014E+05 -4.303E-10  5.611E-02  2.930E+02  2.930E+02
  7.087E-02  4.324E-01  1.014E+05 -2.794E-08  5.611E-02  2.930E+02  2.930E+02
  7.087E-02  4.387E-01  1.014E+05 -6.674E-08  5.611E-02  2.930E+02  2.930E+02
  7.087E-02  4.450E-01  1.014E+05 -1.419E-07  5.611E-02  2.930E+02  2.930E+02
  7.087E-02  4.513E-01  1.014E+05 -2.002E-07  5.611E-02  2.930E+02  2.930E+02
  7.087E-02  4.577E-01  1.014E+05 -1.514E-07  5.611E-02  2.930E+02  2.930E+02
  7.087E-02  4.640E-01  1.014E+05 -8.682E-08  5.612E-02  2.930E+02  2.930E+02
  7.087E-02  4.703E-01  1.014E+05 -5.797E-08  5.610E-02  2.930E+02  2.930E+02
  7.087E-02  4.766E-01  1.014E+05 -3.579E-08  5.614E-02  2.930E+02  2.930E+02
  7.087E-02  4.829E-01  1.013E+05 -2.237E-08  5.609E-02  2.930E+02  2.930E+02
  7.087E-02  4.892E-01  1.013E+05 -1.365E-08  5.575E-02  2.930E+02  2.930E+02
  7.087E-02  4.955E-01  1.013E+05 -8.232E-09  5.796E-02  2.930E+02  2.930E+02
  7.087E-02  5.018E-01  1.013E+05 -5.543E-09  6.500E-02  2.930E+02  2.930E+02
  7.087E-02  5.050E-01  1.013E+05 -5.543E-09  6.500E-02  2.930E+02  2.930E+02
  9.922E-02  0.000E+00  1.019E+05 -9.187E-06  6.500E-02  2.930E+02  2.932E+02
  9.922E-02  3.156E-03  1.019E+05 -9.187E-06  5.075E-02  2.932E+02  2.932E+02
  9.922E-02  9.469E-03  1.019E+05 -9.224E-06  5.585E-02  2.935E+02  2.935E+02
  9.922E-02  1.578E-02  1.019E+05 -9.217E-06  5.624E-02  2.940E+02  2.939E+02
  9.922E-02  2.209E-02  1.019E+05 -1.038E-05  5.626E-02  2.946E+02  2.945E+02
  9.922E-02  2.841E-02  1.019E+05 -1.275E-05  5.626E-02  2.956E+02  2.954E+02
  9.922E-02  3.472E-02  1.019E+05 -1.400E-05  5.635E-02  2.970E+02  2.968E+02
  9.922E-02  4.103E-02  1.018E+05 -1.414E-05  5.646E-02  2.994E+02  2.991E+02
  9.922E-02  4.734E-02  1.018E+05 -1.523E-05  5.662E-02  3.031E+02  3.026E+02
  9.922E-02  5.366E-02  1.018E+05 -1.851E-05  5.680E-02  3.091E+02  3.083E+02
  9.922E-02  5.997E-02  1.018E+05 -2.133E-05  5.698E-02  3.183E+02  3.171E+02
  9.922E-02  6.628E-02  1.018E+05 -2.040E-05  5.718E-02  3.323E+02  3.305E+02
  9.922E-02  7.259E-02  1.018E+05 -1.766E-05  5.740E-02  3.526E+02  3.501E+02
  9.922E-02  7.891E-02  1.018E+05 -1.848E-05  5.776E-02  3.813E+02  3.778E+02
  9.922E-02  8.522E-02  1.018E+05 -2.201E-05  5.820E-02  4.204E+02  4.158E+02
  9.922E-02  9.153E-02  1.018E+05 -1.237E-05  5.917E-02  4.718E+02  4.660E+02
  9.922E-02  9.784E-02  1.018E+05  1.124E-05  6.085E-02  5.379E+02  5.310E+02
  9.922E-02  1.042E-01  1.018E+05  2.417E-05  5.915E-02  6.274E+02  6.252E+02
  9.922E-02  1.105E-01  1.018E+05  3.013E-05  5.998E-02  5.857E+02  5.896E+02
  9.922E-02  1.168E-01  1.017E+05  3.987E-05  5.828E-02  5.298E+02  5.359E+02
  9.922E-02  1.231E-01  1.017E+05  4.390E-05  5.720E-02  4.742E+02  4.808E+02
  9.922E-02  1.294E-01  1.017E+05  3.289E-05  5.679E-02  4.259E+02  4.320E+02
  9.922E-02  1.357E-01  1.017E+05  2.080E-05  5.661E-02  3.871E+02  3.923E+02
  9.922E-02  1.420E-01  1.017E+05  1.570E-05  5.649E-02  3.577E+02  3.618E+02
  9.922E-02  1.483E-01  1.017E+05  1.264E-05  5.647E-02  3.363E+02  3.395E+02
  9.922E-02  1.547E-01  1.017E+05  9.996E-06  5.639E-02  3.214E+02  3.237E+02
  9.922E-02  1.610E-01  1.017E+05  7.403E-06  5.633E-02  3.113E+02  3.129E+02
  9.922E-02  1.673E-01  1.017E+05  3.131E-06  5.629E-02  3.047E+02  3.058E+02
  9.922E-02  1.736E-01  1.017E+05  1.522E-06  5.625E-02  3.005E+02  3.011E+02
  9.922E-02  1.799E-01  1.017E+05  1.087E-06  5.622E-02  2.978E+02  2.982E+02
  9.922E-02  1.862E-01  1.017E+05 -9.909E-07  5.618E-02  2.962E+02  2.964E+02
  9.922E-02  1.925E-01  1.017E+05 -1.755E-06  5.615E-02  2.952E+02  2.953E+02
  9.922E-02  1.988E-01  1.016E+05 -1.458E-06  5.614E-02  2.945E+02  2.946E+02
  9.922E-02  2.052E-01  1.016E+05 -1.353E-06  5.614E-02  2.942E+02  2.942E+02
  9.922E-02  2.115E-01  1.016E+05 -1.149E-06  5.613E-02  2.939E+02  2.940E+02
  9.922E-02  2.178E-01  1.016E+05 -9.792E-07  5.612E-02  2.938E+02  2.938E+02
  9.922E-02  2.241E-01  1.016E+05 -6.450E-07  5.611E-02  2.936E+02  2.937E+02
  9.922E-02  2.304E-01  1.016E+05 -1.421E-06  5.611E-02  2.936E+02  2.936E+02
  9.922E-02  2.367E-01  1.016E+05 -2.661E-06  5.611E-02  2.935E+02  2.935E+02
  9.922E-02  2.430E-01  1.016E+05 -1.259E-06  5.611E-02  2.934E+02  2.935E+02
  9.922E-02  2.493E-01  1.016E+05 -1.708E-07  5.610E-02  2.934E+02  2.934E+02
  9.922E-02  2.557E-01  1.016E+05 -2.731E-07  5.611E-02  2.934E+02  2.934E+02
  9.922E-02  2.620E-01  1.016E+05 -2.112E-07  5.611E-02  2.933E+02  2.933E+02
  9.922E-02  2.683E-01  1.016E+05 -1.419E-07  5.611E-02  2.933E+02  2.933E+02
  9.922E-02  2.746E-01  1.016E+05 -1.328E-07  5.611E-02  2.933E+02  2.933E+02
  9.922E-02  2.809E-01  1.016E+05  8.336E-08  5.611E-02  2.933E+02  2.933E+02
  9.922E-02  2.872E-01  1.016E+05 -9.065E-07  5.611E-02  2.932E+02  2.932E+02
  9.922E-02  2.935E-01  1.015E+05 -2.224E-06  5.610E-02  2.932E+02  2.932E+02
  9.922E-02  2.998E-01  1.015E+05 -9.982E-07  5.610E-02  2.932E+02  2.932E+02
  9.922E-02  3.062E-01  1.015E+05  1.684E-07  5.611E-02  2.932E+02  2.932E+02
  9.922E-02  3.125E-01  1.015E+05 -9.789E-07  5.611E-02  2.932E+02  2.932E+02
  9.922E-02  3.188E-01  1.015E+05 -2.183E-06  5.610E-02  2.931E+02  2.931E+02
  9.922E-02  3.251E-01  1.015E+05 -9.008E-07  5.611E-02  2.931E+02  2.931E+02
  9.922E-02  3.314E-01  1.015E+05  3.461E-07  5.612E-02  2.931E+02  2.931E+02
  9.922E-02  3.377E-01  1.015E+05 -7.732E-07  5.612E-02  2.931E+02  2.931E+02