VARIABLES="XP","YP","P","U","V","TS","TF"
ZONE T="Zone 001"I=    82 J=    22 F=POINT
  0.000E+00  0.000E+00 -4.416E-15  0.000E+00  0.000E+00  4.229E-03  1.059E+03
  0.000E+00  3.156E-03 -4.416E-15  0.000E+00  0.000E+00  4.229E-03  1.059E+03
  0.000E+00  9.469E-03 -3.099E-15  0.000E+00  0.000E+00  4.261E-03  1.059E+03
  0.000E+00  1.578E-02 -3.344E-15  0.000E+00  0.000E+00  4.369E-03  1.060E+03
  0.000E+00  2.209E-02 -3.555E-15  0.000E+00  0.000E+00  4.634E-03  1.062E+03
  0.000E+00  2.841E-02 -3.417E-15  0.000E+00  0.000E+00  5.228E-03  1.064E+03
  0.000E+00  3.472E-02 -3.229E-15  0.000E+00  0.000E+00  6.580E-03  1.067E+03
  0.000E+00  4.103E-02 -3.199E-15  0.000E+00  0.000E+00  9.720E-03  1.070E+03
  0.000E+00  4.734E-02 -3.217E-15  0.000E+00  0.000E+00  1.701E-02  1.074E+03
  0.000E+00  5.366E-02 -3.137E-15  0.000E+00  0.000E+00  3.352E-02  1.078E+03
  0.000E+00  5.997E-02 -3.010E-15  0.000E+00  0.000E+00  6.956E-02  1.083E+03
  0.000E+00  6.628E-02 -2.931E-15  0.000E+00  0.000E+00  1.445E-01  1.089E+03
  0.000E+00  7.259E-02 -2.860E-15  0.000E+00  0.000E+00  2.923E-01  1.095E+03
  0.000E+00  7.891E-02 -2.743E-15  0.000E+00  0.000E+00  5.668E-01  1.101E+03
  0.000E+00  8.522E-02 -2.606E-15  0.000E+00  0.000E+00  1.045E+00  1.109E+03
  0.000E+00  9.153E-02 -2.494E-15  0.000E+00  0.000E+00  1.821E+00  1.116E+03
  0.000E+00  9.784E-02 -2.395E-15  0.000E+00  0.000E+00  2.993E+00  1.124E+03
  0.000E+00  1.042E-01 -2.239E-15  0.000E+00  0.000E+00  4.637E+00  1.133E+03
  0.000E+00  1.105E-01 -2.041E-15  0.000E+00  0.000E+00  2.993E+00  1.105E+03
  0.000E+00  1.168E-01 -1.891E-15  0.000E+00  0.000E+00  1.821E+00  1.078E+03
  0.000E+00  1.231E-01 -1.758E-15  0.000E+00  0.000E+00  1.046E+00  1.051E+03
  0.000E+00  1.294E-01 -1.539E-15  0.000E+00  0.000E+00  5.680E-01  1.025E+03
  0.000E+00  1.357E-01 -1.271E-15  0.000E+00  0.000E+00  2.937E-01  9.993E+02
  0.000E+00  1.420E-01 -1.084E-15  0.000E+00  0.000E+00  1.460E-01  9.741E+02
  0.000E+00  1.483E-01 -9.582E-16  0.000E+00  0.000E+00  7.107E-02  9.494E+02
  0.000E+00  1.547E-01 -7.458E-16  0.000E+00  0.000E+00  3.507E-02  9.253E+02
  0.000E+00  1.610E-01 -4.359E-16  0.000E+00  0.000E+00  1.858E-02  9.017E+02
  0.000E+00  1.673E-01 -1.614E-16  0.000E+00  0.000E+00  1.129E-02  8.785E+02
  0.000E+00  1.736E-01  3.913E-17  0.000E+00  0.000E+00  8.110E-03  8.559E+02
  0.000E+00  1.799E-01  2.633E-16  0.000E+00  0.000E+00  6.676E-03  8.338E+02
  0.000E+00  1.862E-01  5.436E-16  0.000E+00  0.000E+00  5.944E-03  8.122E+02
  0.000E+00  1.925E-01  8.533E-16  0.000E+00  0.000E+00  5.484E-03  7.911E+02
  0.000E+00  1.988E-01  1.211E-15  0.000E+00  0.000E+00  5.126E-03  7.705E+02
  0.000E+00  2.052E-01  1.504E-15  0.000E+00  0.000E+00  4.808E-03  7.504E+02
  0.000E+00  2.115E-01  1.689E-15  0.000E+00  0.000E+00  4.512E-03  7.307E+02
  0.000E+00  2.178E-01  1.994E-15  0.000E+00  0.000E+00  4.238E-03  7.116E+02
  0.000E+00  2.241E-01  2.442E-15  0.000E+00  0.000E+00  3.988E-03  6.929E+02
  0.000E+00  2.304E-01  2.740E-15  0.000E+00  0.000E+00  3.764E-03  6.748E+02
  0.000E+00  2.367E-01  2.824E-15  0.000E+00  0.000E+00  3.565E-03  6.571E+02
  0.000E+00  2.430E-01  2.952E-15  0.000E+00  0.000E+00  3.385E-03  6.398E+02
  0.000E+00  2.493E-01  3.294E-15  0.000E+00  0.000E+00  3.218E-03  6.231E+02
  0.000E+00  2.557E-01  3.720E-15  0.000E+00  0.000E+00  3.061E-03  6.068E+02
  0.000E+00  2.620E-01  3.904E-15  0.000E+00  0.000E+00  2.911E-03  5.909E+02
  0.000E+00  2.683E-01  3.826E-15  0.000E+00  0.000E+00  2.766E-03  5.755E+02
  0.000E+00  2.746E-01  3.989E-15  0.000E+00  0.000E+00  2.625E-03  5.606E+02
  0.000E+00  2.809E-01  4.489E-15  0.000E+00  0.000E+00  2.488E-03  5.461E+02
  0.000E+00  2.872E-01  4.829E-15  0.000E+00  0.000E+00  2.356E-03  5.321E+02
  0.000E+00  2.935E-01  4.865E-15  0.000E+00  0.000E+00  2.232E-03  5.185E+02
  0.000E+00  2.998E-01  4.934E-15  0.000E+00  0.000E+00  2.120E-03  5.054E+02
  0.000E+00  3.062E-01  5.235E-15  0.000E+00  0.000E+00  2.022E-03  4.927E+02
  0.000E+00  3.125E-01  5.581E-15  0.000E+00  0.000E+00  1.939E-03  4.804E+02
  0.000E+00  3.188E-01  5.730E-15  0.000E+00  0.000E+00  1.866E-03  4.686E+02
  0.000E+00  3.251E-01  5.794E-15  0.000E+00  0.000E+00  1.797E-03  4.572E+02
  0.000E+00  3.314E-01  5.987E-15  0.000E+00  0.000E+00  1.728E-03  4.462E+02
  0.000E+00  3.377E-01  6.299E-15  0.000E+00  0.000E+00  1.656E-03  4.357E+02
  0.000E+00  3.440E-01  6.583E-15  0.000E+00  0.000E+00  1.586E-03  4.255E+02
  0.000E+00  3.503E-01  6.566E-15  0.000E+00  0.000E+00  1.517E-03  4.158E+02
  0.000E+00  3.567E-01  6.434E-15  0.000E+00  0.000E+00  1.448E-03  4.065E+02
  0.000E+00  3.630E-01  6.777E-15  0.000E+00  0.000E+00  1.377E-03  3.976E+02
  0.000E+00  3.693E-01  7.274E-15  0.000E+00  0.000E+00  1.304E-03  3.891E+02
  0.000E+00  3.756E-01  7.154E-15  0.000E+00  0.000E+00  1.228E-03  3.810E+02
  0.000E+00  3.819E-01  6.541E-15  0.000E+00  0.000E+00  1.150E-03  3.733E+02
  0.000E+00  3.882E-01  6.063E-15  0.000E+00  0.000E+00  1.071E-03  3.660E+02
  0.000E+00  3.945E-01  5.907E-15  0.000E+00  0.000E+00  9.957E-04  3.592E+02
  0.000E+00  4.008E-01  5.661E-15  0.000E+00  0.000E+00  9.250E-04  3.527E+02
  0.000E+00  4.072E-01  5.122E-15  0.000E+00  0.000E+00  8.608E-04  3.466E+02
  0.000E+00  4.135E-01  4.608E-15  0.000E+00  0.000E+00  8.042E-04  3.409E+02
  0.000E+00  4.198E-01  4.234E-15  0.000E+00  0.000E+00  7.557E-04  3.355E+02
  0.000E+00  4.261E-01  3.924E-15  0.000E+00  0.000E+00  7.150E-04  3.306E+02
  0.000E+00  4.324E-01  3.702E-15  0.000E+00  0.000E+00  6.819E-04  3.261E+02
  0.000E+00  4.387E-01  3.454E-15  0.000E+00  0.000E+00  6.561E-04  3.219E+02
  0.000E+00  4.450E-01  3.083E-15  0.000E+00  0.000E+00  6.370E-04  3.181E+02
  0.000E+00  4.513E-01  2.752E-15  0.000E+00  0.000E+00  6.239E-04  3.147E+02
  0.000E+00  4.577E-01  2.489E-15  0.000E+00  0.000E+00  6.162E-04  3.117E+02
  0.000E+00  4.640E-01  2.180E-15  0.000E+00  0.000E+00  6.133E-04  3.091E+02
  0.000E+00  4.703E-01  1.925E-15  0.000E+00  0.000E+00  6.146E-04  3.068E+02
  0.000E+00  4.766E-01  1.736E-15  0.000E+00  0.000E+00  6.194E-04  3.050E+02
  0.000E+00  4.829E-01  1.452E-15  0.000E+00  0.000E+00  6.266E-04  3.035E+02
  0.000E+00  4.892E-01  1.192E-15  0.000E+00  0.000E+00  6.354E-04  3.023E+02
  0.000E+00  4.955E-01  1.103E-15  0.000E+00  0.000E+00  6.440E-04  3.016E+02
  0.000E+00  5.018E-01  9.484E-16  0.000E+00  0.000E+00  6.496E-04  3.012E+02
  0.000E+00  5.050E-01  9.484E-16  0.000E+00  0.000E+00  6.496E-04  3.012E+02
  4.000E-03  0.000E+00 -4.319E-15  0.000E+00  0.000E+00  4.229E-03  1.059E+03
  4.000E-03  3.156E-03 -3.828E-15 -1.183E-14 -1.337E-14  4.229E-03  1.059E+03
  4.000E-03  9.469E-03 -3.343E-15  5.321E-15 -1.003E-14  4.261E-03  1.059E+03
  4.000E-03  1.578E-02 -3.423E-15  2.717E-15 -8.124E-16  4.369E-03  1.060E+03
  4.000E-03  2.209E-02 -3.440E-15 -2.959E-15 -5.435E-16  4.634E-03  1.062E+03
  4.000E-03  2.841E-02 -3.359E-15 -2.334E-15 -1.407E-15  5.228E-03  1.064E+03
  4.000E-03  3.472E-02 -3.258E-15 -2.696E-16 -5.427E-17  6.580E-03  1.067E+03
  4.000E-03  4.103E-02 -3.200E-15 -7.602E-16  2.391E-15  9.720E-03  1.070E+03
  4.000E-03  4.734E-02 -3.154E-15 -2.211E-15  3.524E-15  1.701E-02  1.074E+03
  4.000E-03  5.366E-02 -3.079E-15 -2.297E-15  4.035E-15  3.352E-02  1.078E+03
  4.000E-03  5.997E-02 -2.987E-15 -1.609E-15  4.826E-15  6.956E-02  1.083E+03
  4.000E-03  6.628E-02 -2.901E-15 -1.577E-15  5.633E-15  1.445E-01  1.089E+03
  4.000E-03  7.259E-02 -2.812E-15 -1.755E-15  5.895E-15  2.923E-01  1.095E+03
  4.000E-03  7.891E-02 -2.705E-15 -1.357E-15  5.801E-15  5.668E-01  1.101E+03
  4.000E-03  8.522E-02 -2.586E-15 -7.740E-16  5.877E-15  1.045E+00  1.109E+03
  4.000E-03  9.153E-02 -2.467E-15 -7.452E-16  6.140E-15  1.821E+00  1.116E+03
  4.000E-03  9.784E-02 -2.345E-15 -1.014E-15  6.254E-15  2.993E+00  1.124E+03
  4.000E-03  1.042E-01 -2.201E-15 -5.059E-16  6.386E-15  4.637E+00  1.133E+03
  4.000E-03  1.105E-01 -2.037E-15  4.016E-16  7.176E-15  2.993E+00  1.105E+03
  4.000E-03  1.168E-01 -1.875E-15  1.922E-16  8.492E-15  1.821E+00  1.078E+03
  4.000E-03  1.231E-01 -1.705E-15 -6.123E-16  9.576E-15  1.046E+00  1.051E+03
  4.000E-03  1.294E-01 -1.506E-15 -2.491E-16  1.067E-14  5.680E-01  1.025E+03
  4.000E-03  1.357E-01 -1.288E-15  6.461E-16  1.279E-14  2.937E-01  9.993E+02
  4.000E-03  1.420E-01 -1.085E-15 -6.550E-17  1.576E-14  1.460E-01  9.741E+02
  4.000E-03  1.483E-01 -8.921E-16 -1.793E-15  1.832E-14  7.107E-02  9.494E+02
  4.000E-03  1.547E-01 -6.734E-16 -1.779E-15  2.034E-14  3.507E-02  9.253E+02
  4.000E-03  1.610E-01 -4.245E-16 -6.197E-17  2.321E-14  1.858E-02  9.017E+02
  4.000E-03  1.673E-01 -1.745E-16  6.224E-16  2.735E-14  1.129E-02  8.785E+02
  4.000E-03  1.736E-01  6.917E-17 -2.483E-16  3.184E-14  8.110E-03  8.559E+02
  4.000E-03  1.799E-01  3.287E-16 -8.765E-16  3.649E-14  6.676E-03  8.338E+02
  4.000E-03  1.862E-01  6.099E-16 -1.035E-15  4.170E-14  5.944E-03  8.122E+02
  4.000E-03  1.925E-01  9.065E-16 -1.077E-15  4.721E-14  5.484E-03  7.911E+02
  4.000E-03  1.988E-01  1.222E-15 -3.361E-16  5.330E-14  5.126E-03  7.705E+02
  4.000E-03  2.052E-01  1.526E-15 -4.713E-16  6.070E-14  4.808E-03  7.504E+02
  4.000E-03  2.115E-01  1.806E-15 -2.543E-15  6.830E-14  4.512E-03  7.307E+02
  4.000E-03  2.178E-01  2.107E-15 -2.819E-15  7.518E-14  4.238E-03  7.116E+02
  4.000E-03  2.241E-01  2.431E-15 -1.009E-16  8.303E-14  3.988E-03  6.929E+02
  4.000E-03  2.304E-01  2.701E-15  9.550E-16  9.263E-14  3.764E-03  6.748E+02
  4.000E-03  2.367E-01  2.899E-15 -1.276E-15  1.018E-13  3.565E-03  6.571E+02
  4.000E-03  2.430E-01  3.096E-15 -2.382E-15  1.094E-13  3.385E-03  6.398E+02
  4.000E-03  2.493E-01  3.341E-15  8.775E-16  1.173E-13  3.218E-03  6.231E+02
  4.000E-03  2.557E-01  3.601E-15  5.810E-15  1.277E-13  3.061E-03  6.068E+02
  4.000E-03  2.620E-01  3.796E-15  6.367E-15  1.394E-13  2.911E-03  5.909E+02
  4.000E-03  2.683E-01  3.930E-15  2.646E-15  1.487E-13  2.766E-03  5.755E+02
  4.000E-03  2.746E-01  4.124E-15  3.127E-15  1.549E-13  2.625E-03  5.606E+02
  4.000E-03  2.809E-01  4.392E-15  9.614E-15  1.618E-13  2.488E-03  5.461E+02
  4.000E-03  2.872E-01  4.615E-15  1.396E-14  1.705E-13  2.356E-03  5.321E+02
  4.000E-03  2.935E-01  4.763E-15  1.292E-14  1.776E-13  2.232E-03  5.185E+02
  4.000E-03  2.998E-01  4.927E-15  1.155E-14  1.816E-13  2.120E-03  5.054E+02
  4.000E-03  3.062E-01  5.158E-15  1.344E-14  1.847E-13  2.022E-03  4.927E+02
  4.000E-03  3.125E-01  5.408E-15  1.519E-14  1.893E-13  1.939E-03  4.804E+02
  4.000E-03  3.188E-01  5.621E-15  1.215E-14  1.943E-13  1.866E-03  4.686E+02
  4.000E-03  3.251E-01  5.821E-15  6.339E-15  1.978E-13  1.797E-03  4.572E+02
  4.000E-03  3.314E-01  6.061E-15  2.821E-15  2.006E-13  1.728E-03  4.462E+02
  4.000E-03  3.377E-01  6.332E-15  2.293E-15  2.054E-13  1.656E-03  4.357E+02
  4.000E-03  3.440E-01  6.580E-15  1.039E-15  2.132E-13  1.586E-03  4.255E+02
  4.000E-03  3.503E-01  6.725E-15 -4.578E-15  2.214E-13  1.517E-03  4.158E+02
  4.000E-03  3.567E-01  6.812E-15 -8.691E-15  2.266E-13  1.448E-03  4.065E+02
  4.000E-03  3.630E-01  6.970E-15 -2.122E-15  2.315E-13  1.377E-03  3.976E+02
  4.000E-03  3.693E-01  7.106E-15  7.704E-15  2.411E-13  1.304E-03  3.891E+02
  4.000E-03  3.756E-01  7.028E-15  6.823E-15  2.529E-13  1.228E-03  3.810E+02
  4.000E-03  3.819E-01  6.766E-15 -3.031E-15  2.612E-13  1.150E-03  3.733E+02
  4.000E-03  3.882E-01  6.478E-15 -1.021E-14  2.660E-13  1.071E-03  3.660E+02
  4.000E-03  3.945E-01  6.206E-15 -1.103E-14  2.726E-13  9.957E-04  3.592E+02
  4.000E-03  4.008E-01  5.857E-15 -1.233E-14  2.832E-13  9.250E-04  3.527E+02
  4.000E-03  4.072E-01  5.411E-15 -1.677E-14  2.956E-13  8.608E-04  3.466E+02
  4.000E-03  4.135E-01  4.968E-15 -1.892E-14  3.086E-13  8.042E-04  3.409E+02
  4.000E-03  4.198E-01  4.568E-15 -1.711E-14  3.227E-13  7.557E-04  3.355E+02
  4.000E-03  4.261E-01  4.193E-15 -1.302E-14  3.366E-13  7.150E-04  3.306E+02
  4.000E-03  4.324E-01  3.839E-15 -6.422E-15  3.482E-13  6.819E-04  3.261E+02
  4.000E-03  4.387E-01  3.465E-15  1.275E-15  3.559E-13  6.561E-04  3.219E+02
  4.000E-03  4.450E-01  3.049E-15  7.811E-15  3.582E-13  6.370E-04  3.181E+02
  4.000E-03  4.513E-01  2.646E-15  1.313E-14  3.556E-13  6.239E-04  3.147E+02
  4.000E-03  4.577E-01  2.296E-15  1.611E-14  3.516E-13  6.162E-04  3.117E+02
  4.000E-03  4.640E-01  1.994E-15  1.556E-14  3.492E-13  6.133E-04  3.091E+02
  4.000E-03  4.703E-01  1.750E-15  1.379E-14  3.489E-13  6.146E-04  3.068E+02
  4.000E-03  4.766E-01  1.531E-15  1.156E-14  3.500E-13  6.194E-04  3.050E+02
  4.000E-03  4.829E-01  1.284E-15  6.977E-15  3.509E-13  6.266E-04  3.035E+02
  4.000E-03  4.892E-01  1.059E-15  1.782E-15  3.532E-13  6.354E-04  3.023E+02
  4.000E-03  4.955E-01  9.063E-16 -2.778E-15  3.649E-13  6.440E-04  3.016E+02
  4.000E-03  5.018E-01  9.281E-16 -1.386E-14  4.095E-13  6.496E-04  3.012E+02
  4.000E-03  5.050E-01  0.000E+00 -1.386E-14  4.095E-13  6.496E-04  3.012E+02
  1.200E-02  0.000E+00 -3.101E-15  0.000E+00  0.000E+00  4.240E-03  1.059E+03
  1.200E-02  3.156E-03 -3.442E-15 -5.761E-15  1.090E-14  4.240E-03  1.059E+03
  1.200E-02  9.469E-03 -3.574E-15  1.399E-15  3.373E-15  4.293E-03  1.059E+03
  1.200E-02  1.578E-02 -3.506E-15 -4.824E-17  3.223E-16  4.431E-03  1.060E+03
  1.200E-02  2.209E-02 -3.406E-15 -3.574E-15  3.726E-15  4.724E-03  1.062E+03
  1.200E-02  2.841E-02 -3.365E-15 -4.156E-15  8.666E-15  5.343E-03  1.064E+03
  1.200E-02  3.472E-02 -3.323E-15 -3.309E-15  1.258E-14  6.716E-03  1.067E+03
  1.200E-02  4.103E-02 -3.258E-15 -3.230E-15  1.645E-14  9.878E-03  1.070E+03
  1.200E-02  4.734E-02 -3.182E-15 -3.569E-15  2.043E-14  1.719E-02  1.074E+03
  1.200E-02  5.366E-02 -3.114E-15 -3.578E-15  2.444E-14  3.373E-02  1.078E+03
  1.200E-02  5.997E-02 -3.045E-15 -3.336E-15  2.780E-14  6.980E-02  1.083E+03
  1.200E-02  6.628E-02 -2.959E-15 -3.422E-15  3.067E-14  1.448E-01  1.089E+03
  1.200E-02  7.259E-02 -2.862E-15 -3.774E-15  3.341E-14  2.926E-01  1.095E+03
  1.200E-02  7.891E-02 -2.762E-15 -4.044E-15  3.597E-14  5.671E-01  1.101E+03
  1.200E-02  8.522E-02 -2.656E-15 -4.314E-15  3.836E-14  1.045E+00  1.109E+03
  1.200E-02  9.153E-02 -2.535E-15 -4.873E-15  4.094E-14  1.821E+00  1.116E+03
  1.200E-02  9.784E-02 -2.402E-15 -5.639E-15  4.417E-14  2.994E+00  1.124E+03
  1.200E-02  1.042E-01 -2.266E-15 -6.107E-15  4.807E-14  4.638E+00  1.133E+03
  1.200E-02  1.105E-01 -2.123E-15 -6.341E-15  5.241E-14  2.994E+00  1.105E+03
  1.200E-02  1.168E-01 -1.956E-15 -7.120E-15  5.751E-14  1.822E+00  1.078E+03
  1.200E-02  1.231E-01 -1.770E-15 -8.497E-15  6.402E-14  1.046E+00  1.051E+03
  1.200E-02  1.294E-01 -1.586E-15 -9.618E-15  7.174E-14  5.684E-01  1.025E+03
  1.200E-02  1.357E-01 -1.398E-15 -1.039E-14  8.003E-14  2.941E-01  9.993E+02
  1.200E-02  1.420E-01 -1.188E-15 -1.178E-14  8.915E-14  1.464E-01  9.741E+02
  1.200E-02  1.483E-01 -9.618E-16 -1.376E-14  9.984E-14  7.145E-02  9.494E+02
  1.200E-02  1.547E-01 -7.442E-16 -1.490E-14  1.119E-13  3.545E-02  9.253E+02
  1.200E-02  1.610E-01 -5.360E-16 -1.494E-14  1.244E-13  1.894E-02  9.017E+02
  1.200E-02  1.673E-01 -3.144E-16 -1.513E-14  1.377E-13  1.165E-02  8.785E+02
  1.200E-02  1.736E-01 -7.141E-17 -1.579E-14  1.525E-13  8.464E-03  8.559E+02
  1.200E-02  1.799E-01  1.800E-16 -1.641E-14  1.693E-13  7.024E-03  8.338E+02
  1.200E-02  1.862E-01  4.358E-16 -1.712E-14  1.874E-13  6.287E-03  8.122E+02
  1.200E-02  1.925E-01  7.006E-16 -1.793E-14  2.067E-13  5.821E-03  7.911E+02
  1.200E-02  1.988E-01  9.698E-16 -1.818E-14  2.267E-13  5.456E-03  7.705E+02
  1.200E-02  2.052E-01  1.257E-15 -1.862E-14  2.474E-13  5.130E-03  7.504E+02
  1.200E-02  2.115E-01  1.564E-15 -2.024E-14  2.696E-13  4.825E-03  7.307E+02
  1.200E-02  2.178E-01  1.852E-15 -2.144E-14  2.934E-13  4.540E-03  7.116E+02
  1.200E-02  2.241E-01  2.107E-15 -2.110E-14  3.171E-13  4.279E-03  6.929E+02
  1.200E-02  2.304E-01  2.361E-15 -2.104E-14  3.404E-13  4.044E-03  6.748E+02
  1.200E-02  2.367E-01  2.622E-15 -2.225E-14  3.645E-13  3.834E-03  6.571E+02
  1.200E-02  2.430E-01  2.857E-15 -2.285E-14  3.901E-13  3.643E-03  6.398E+02
  1.200E-02  2.493E-01  3.049E-15 -2.133E-14  4.164E-13  3.467E-03  6.231E+02
  1.200E-02  2.557E-01  3.223E-15 -1.898E-14  4.422E-13  3.300E-03  6.068E+02
  1.200E-02  2.620E-01  3.434E-15 -1.878E-14  4.674E-13  3.141E-03  5.909E+02
  1.200E-02  2.683E-01  3.692E-15 -2.106E-14  4.934E-13  2.986E-03  5.755E+02
  1.200E-02  2.746E-01  3.920E-15 -2.201E-14  5.200E-13  2.837E-03  5.606E+02
  1.200E-02  2.809E-01  4.095E-15 -2.004E-14  5.442E-13  2.691E-03  5.461E+02
  1.200E-02  2.872E-01  4.291E-15 -1.835E-14  5.647E-13  2.550E-03  5.321E+02
  1.200E-02  2.935E-01  4.531E-15 -1.863E-14  5.835E-13  2.418E-03  5.185E+02
  1.200E-02  2.998E-01  4.767E-15 -1.888E-14  6.018E-13  2.297E-03  5.054E+02
  1.200E-02  3.062E-01  4.965E-15 -1.758E-14  6.188E-13  2.192E-03  4.927E+02
  1.200E-02  3.125E-01  5.148E-15 -1.612E-14  6.334E-13  2.100E-03  4.804E+02
  1.200E-02  3.188E-01  5.352E-15 -1.647E-14  6.462E-13  2.019E-03  4.686E+02
  1.200E-02  3.251E-01  5.561E-15 -1.789E-14  6.586E-13  1.943E-03  4.572E+02
  1.200E-02  3.314E-01  5.741E-15 -1.824E-14  6.712E-13  1.867E-03  4.462E+02
  1.200E-02  3.377E-01  5.891E-15 -1.702E-14  6.835E-13  1.790E-03  4.357E+02
  1.200E-02  3.440E-01  6.036E-15 -1.540E-14  6.950E-13  1.714E-03  4.255E+02
  1.200E-02  3.503E-01  6.218E-15 -1.476E-14  7.070E-13  1.639E-03  4.158E+02
  1.200E-02  3.567E-01  6.396E-15 -1.313E-14  7.217E-13  1.565E-03  4.065E+02
  1.200E-02  3.630E-01  6.453E-15 -6.742E-15  7.374E-13  1.490E-03  3.976E+02
  1.200E-02  3.693E-01  6.414E-15  1.731E-15  7.498E-13  1.413E-03  3.891E+02
  1.200E-02  3.756E-01  6.375E-15  5.743E-15  7.598E-13  1.333E-03  3.810E+02
  1.200E-02  3.819E-01  6.294E-15  4.611E-15  7.715E-13  1.252E-03  3.733E+02
  1.200E-02  3.882E-01  6.051E-15  3.236E-15  7.855E-13  1.171E-03  3.660E+02
  1.200E-02  3.945E-01  5.610E-15  4.400E-15  7.993E-13  1.093E-03  3.592E+02
  1.200E-02  4.008E-01  5.069E-15  5.891E-15  8.129E-13  1.019E-03  3.527E+02
  1.200E-02  4.072E-01  4.519E-15  6.216E-15  8.299E-13  9.521E-04  3.466E+02
  1.200E-02  4.135E-01  3.981E-15  6.911E-15  8.522E-13  8.926E-04  3.409E+02
  1.200E-02  4.198E-01  3.495E-15  7.828E-15  8.784E-13  8.414E-04  3.355E+02
  1.200E-02  4.261E-01  3.102E-15  7.361E-15  9.063E-13  7.982E-04  3.306E+02
  1.200E-02  4.324E-01  2.785E-15  5.602E-15  9.333E-13  7.630E-04  3.261E+02
  1.200E-02  4.387E-01  2.525E-15  3.423E-15  9.551E-13  7.352E-04  3.219E+02
  1.200E-02  4.450E-01  2.297E-15  1.624E-15  9.691E-13  7.143E-04  3.181E+02
  1.200E-02  4.513E-01  2.059E-15  6.955E-16  9.758E-13  6.998E-04  3.147E+02
  1.200E-02  4.577E-01  1.811E-15 -9.174E-16  9.790E-13  6.910E-04  3.117E+02
  1.200E-02  4.640E-01  1.584E-15 -5.364E-15  9.834E-13  6.875E-04  3.091E+02
  1.200E-02  4.703E-01  1.366E-15 -1.211E-14  9.900E-13  6.883E-04  3.068E+02
  1.200E-02  4.766E-01  1.147E-15 -1.994E-14  9.964E-13  6.928E-04  3.050E+02
  1.200E-02  4.829E-01  9.466E-16 -2.915E-14  1.003E-12  6.999E-04  3.035E+02
  1.200E-02  4.892E-01  7.344E-16 -3.867E-14  1.013E-12  7.088E-04  3.023E+02
  1.200E-02  4.955E-01  6.085E-16 -4.840E-14  1.032E-12  7.175E-04  3.016E+02
  1.200E-02  5.018E-01  8.223E-16 -6.024E-14  1.092E-12  7.232E-04  3.012E+02
  1.200E-02  5.050E-01  0.000E+00 -6.024E-14  1.092E-12  7.232E-04  3.012E+02
  2.000E-02  0.000E+00 -3.406E-15  0.000E+00  0.000E+00  4.291E-03  1.059E+03
  2.000E-02  3.156E-03 -3.544E-15  3.042E-16  6.572E-15  4.291E-03  1.059E+03
  2.000E-02  9.469E-03 -3.525E-15 -4.186E-15  3.443E-15  4.370E-03  1.059E+03
  2.000E-02  1.578E-02 -3.470E-15 -6.499E-15  4.984E-15  4.546E-03  1.060E+03
  2.000E-02  2.209E-02 -3.404E-15 -7.759E-15  1.103E-14  4.879E-03  1.062E+03
  2.000E-02  2.841E-02 -3.368E-15 -8.627E-15  1.804E-14  5.537E-03  1.064E+03
  2.000E-02  3.472E-02 -3.317E-15 -8.917E-15  2.444E-14  6.946E-03  1.067E+03
  2.000E-02  4.103E-02 -3.257E-15 -8.604E-15  3.092E-14  1.014E-02  1.070E+03
  2.000E-02  4.734E-02 -3.195E-15 -7.835E-15  3.717E-14  1.749E-02  1.074E+03
  2.000E-02  5.366E-02 -3.131E-15 -7.298E-15  4.335E-14  3.408E-02  1.078E+03
  2.000E-02  5.997E-02 -3.063E-15 -7.048E-15  4.928E-14  7.019E-02  1.083E+03
  2.000E-02  6.628E-02 -2.986E-15 -6.897E-15  5.505E-14  1.452E-01  1.089E+03
  2.000E-02  7.259E-02 -2.902E-15 -6.901E-15  6.078E-14  2.931E-01  1.095E+03
  2.000E-02  7.891E-02 -2.813E-15 -7.201E-15  6.651E-14  5.677E-01  1.101E+03
  2.000E-02  8.522E-02 -2.716E-15 -7.794E-15  7.245E-14  1.046E+00  1.109E+03
  2.000E-02  9.153E-02 -2.610E-15 -8.517E-15  7.895E-14  1.822E+00  1.116E+03
  2.000E-02  9.784E-02 -2.494E-15 -9.304E-15  8.634E-14  2.994E+00  1.124E+03
  2.000E-02  1.042E-01 -2.372E-15 -1.025E-14  9.480E-14  4.639E+00  1.133E+03
  2.000E-02  1.105E-01 -2.243E-15 -1.127E-14  1.043E-13  2.995E+00  1.105E+03
  2.000E-02  1.168E-01 -2.099E-15 -1.220E-14  1.151E-13  1.823E+00  1.078E+03
  2.000E-02  1.231E-01 -1.939E-15 -1.332E-14  1.275E-13  1.047E+00  1.051E+03
  2.000E-02  1.294E-01 -1.768E-15 -1.511E-14  1.418E-13  5.690E-01  1.025E+03
  2.000E-02  1.357E-01 -1.587E-15 -1.738E-14  1.581E-13  2.947E-01  9.993E+02
  2.000E-02  1.420E-01 -1.397E-15 -1.962E-14  1.762E-13  1.470E-01  9.741E+02
  2.000E-02  1.483E-01 -1.198E-15 -2.187E-14  1.964E-13  7.202E-02  9.494E+02
  2.000E-02  1.547E-01 -9.984E-16 -2.434E-14  2.187E-13  3.600E-02  9.253E+02
  2.000E-02  1.610E-01 -8.016E-16 -2.680E-14  2.427E-13  1.949E-02  9.017E+02
  2.000E-02  1.673E-01 -6.024E-16 -2.891E-14  2.681E-13  1.218E-02  8.785E+02
  2.000E-02  1.736E-01 -3.963E-16 -3.071E-14  2.954E-13  8.992E-03  8.559E+02
  2.000E-02  1.799E-01 -1.833E-16 -3.248E-14  3.249E-13  7.548E-03  8.338E+02
  2.000E-02  1.862E-01  3.924E-17 -3.438E-14  3.565E-13  6.806E-03  8.122E+02
  2.000E-02  1.925E-01  2.734E-16 -3.646E-14  3.898E-13  6.332E-03  7.911E+02
  2.000E-02  1.988E-01  5.173E-16 -3.861E-14  4.246E-13  5.955E-03  7.705E+02
  2.000E-02  2.052E-01  7.745E-16 -4.042E-14  4.604E-13  5.615E-03  7.504E+02
  2.000E-02  2.115E-01  1.044E-15 -4.197E-14  4.978E-13  5.294E-03  7.307E+02
  2.000E-02  2.178E-01  1.310E-15 -4.384E-14  5.369E-13  4.992E-03  7.116E+02
  2.000E-02  2.241E-01  1.560E-15 -4.586E-14  5.769E-13  4.712E-03  6.929E+02
  2.000E-02  2.304E-01  1.796E-15 -4.710E-14  6.170E-13  4.458E-03  6.748E+02
  2.000E-02  2.367E-01  2.015E-15 -4.737E-14  6.577E-13  4.230E-03  6.570E+02
  2.000E-02  2.430E-01  2.205E-15 -4.729E-14  6.994E-13  4.023E-03  6.398E+02
  2.000E-02  2.493E-01  2.363E-15 -4.739E-14  7.419E-13  3.831E-03  6.230E+02
  2.000E-02  2.557E-01  2.505E-15 -4.763E-14  7.845E-13  3.649E-03  6.067E+02
  2.000E-02  2.620E-01  2.657E-15 -4.735E-14  8.269E-13  3.475E-03  5.909E+02
  2.000E-02  2.683E-01  2.826E-15 -4.652E-14  8.694E-13  3.306E-03  5.755E+02
  2.000E-02  2.746E-01  2.995E-15 -4.629E-14  9.115E-13  3.141E-03  5.606E+02
  2.000E-02  2.809E-01  3.159E-15 -4.671E-14  9.513E-13  2.980E-03  5.461E+02
  2.000E-02  2.872E-01  3.338E-15 -4.635E-14  9.878E-13  2.826E-03  5.321E+02
  2.000E-02  2.935E-01  3.532E-15 -4.463E-14  1.021E-12  2.681E-03  5.185E+02
  2.000E-02  2.998E-01  3.724E-15 -4.251E-14  1.053E-12  2.548E-03  5.054E+02
  2.000E-02  3.062E-01  3.908E-15 -4.108E-14  1.081E-12  2.430E-03  4.927E+02
  2.000E-02  3.125E-01  4.095E-15 -4.054E-14  1.107E-12  2.327E-03  4.804E+02
  2.000E-02  3.188E-01  4.291E-15 -4.055E-14  1.131E-12  2.234E-03  4.686E+02
  2.000E-02  3.251E-01  4.484E-15 -4.110E-14  1.152E-12  2.148E-03  4.572E+02
  2.000E-02  3.314E-01  4.668E-15 -4.237E-14  1.172E-12  2.063E-03  4.462E+02
  2.000E-02  3.377E-01  4.843E-15 -4.400E-14  1.191E-12  1.978E-03  4.357E+02
  2.000E-02  3.440E-01  5.002E-15 -4.472E-14  1.211E-12  1.894E-03  4.255E+02
  2.000E-02  3.503E-01  5.143E-15 -4.280E-14  1.230E-12  1.811E-03  4.158E+02
  2.000E-02  3.567E-01  5.262E-15 -3.836E-14  1.250E-12  1.730E-03  4.065E+02
  2.000E-02  3.630E-01  5.337E-15 -3.341E-14  1.268E-12  1.648E-03  3.976E+02
  2.000E-02  3.693E-01  5.366E-15 -2.855E-14  1.285E-12  1.565E-03  3.891E+02
  2.000E-02  3.756E-01  5.349E-15 -2.351E-14  1.298E-12  1.481E-03  3.810E+02
  2.000E-02  3.819E-01  5.256E-15 -1.995E-14  1.311E-12  1.396E-03  3.733E+02
  2.000E-02  3.882E-01  5.037E-15 -2.001E-14  1.325E-12  1.311E-03  3.660E+02
  2.000E-02  3.945E-01  4.664E-15 -2.326E-14  1.339E-12  1.229E-03  3.592E+02
  2.000E-02  4.008E-01  4.150E-15 -2.685E-14  1.355E-12  1.151E-03  3.527E+02
  2.000E-02  4.072E-01  3.543E-15 -2.883E-14  1.374E-12  1.080E-03  3.466E+02
  2.000E-02  4.135E-01  2.911E-15 -2.946E-14  1.399E-12  1.016E-03  3.409E+02
  2.000E-02  4.198E-01  2.334E-15 -2.964E-14  1.429E-12  9.611E-04  3.355E+02
  2.000E-02  4.261E-01  1.881E-15 -3.049E-14  1.461E-12  9.142E-04  3.306E+02
  2.000E-02  4.324E-01  1.578E-15 -3.318E-14  1.495E-12  8.756E-04  3.261E+02
  2.000E-02  4.387E-01  1.404E-15 -3.733E-14  1.525E-12  8.447E-04  3.219E+02
  2.000E-02  4.450E-01  1.294E-15 -4.115E-14  1.549E-12  8.212E-04  3.181E+02
  2.000E-02  4.513E-01  1.174E-15 -4.372E-14  1.563E-12  8.044E-04  3.147E+02
  2.000E-02  4.577E-01  1.029E-15 -4.658E-14  1.571E-12  7.939E-04  3.117E+02
  2.000E-02  4.640E-01  8.918E-16 -5.269E-14  1.578E-12  7.888E-04  3.091E+02
  2.000E-02  4.703E-01  7.799E-16 -6.296E-14  1.586E-12  7.884E-04  3.068E+02
  2.000E-02  4.766E-01  6.810E-16 -7.497E-14  1.594E-12  7.919E-04  3.050E+02
  2.000E-02  4.829E-01  5.864E-16 -8.785E-14  1.603E-12  7.983E-04  3.035E+02
  2.000E-02  4.892E-01  4.639E-16 -1.022E-13  1.615E-12  8.066E-04  3.023E+02
  2.000E-02  4.955E-01  4.532E-16 -1.143E-13  1.634E-12  8.148E-04  3.016E+02
  2.000E-02  5.018E-01  8.582E-16 -1.243E-13  1.698E-12  8.201E-04  3.012E+02
  2.000E-02  5.050E-01  0.000E+00 -1.243E-13  1.698E-12  8.201E-04  3.012E+02
  2.800E-02  0.000E+00 -3.572E-15  0.000E+00  0.000E+00  4.378E-03  1.059E+03
  2.800E-02  3.156E-03 -3.619E-15 -2.940E-15  3.240E-15  4.378E-03  1.059E+03
  2.800E-02  9.469E-03 -3.519E-15 -9.655E-15  3.390E-15  4.481E-03  1.059E+03
  2.800E-02  1.578E-02 -3.476E-15 -1.366E-14  8.949E-15  4.695E-03  1.060E+03
  2.800E-02  2.209E-02 -3.426E-15 -1.562E-14  1.655E-14  5.072E-03  1.062E+03
  2.800E-02  2.841E-02 -3.387E-15 -1.638E-14  2.468E-14  5.772E-03  1.064E+03
  2.800E-02  3.472E-02 -3.336E-15 -1.620E-14  3.274E-14  7.222E-03  1.067E+03
  2.800E-02  4.103E-02 -3.284E-15 -1.540E-14  4.109E-14  1.046E-02  1.070E+03
  2.800E-02  4.734E-02 -3.233E-15 -1.408E-14  4.902E-14  1.785E-02  1.074E+03
  2.800E-02  5.366E-02 -3.177E-15 -1.274E-14  5.678E-14  3.447E-02  1.078E+03
  2.800E-02  5.997E-02 -3.115E-15 -1.161E-14  6.463E-14  7.062E-02  1.083E+03
  2.800E-02  6.628E-02 -3.050E-15 -1.079E-14  7.277E-14  1.457E-01  1.089E+03
  2.800E-02  7.259E-02 -2.980E-15 -1.033E-14  8.118E-14  2.936E-01  1.095E+03
  2.800E-02  7.891E-02 -2.903E-15 -1.030E-14  8.992E-14  5.682E-01  1.101E+03
  2.800E-02  8.522E-02 -2.819E-15 -1.081E-14  9.943E-14  1.046E+00  1.109E+03
  2.800E-02  9.153E-02 -2.726E-15 -1.176E-14  1.101E-13  1.822E+00  1.116E+03
  2.800E-02  9.784E-02 -2.627E-15 -1.298E-14  1.222E-13  2.995E+00  1.124E+03
  2.800E-02  1.042E-01 -2.519E-15 -1.445E-14  1.358E-13  4.639E+00  1.133E+03
  2.800E-02  1.105E-01 -2.405E-15 -1.612E-14  1.510E-13  2.995E+00  1.105E+03
  2.800E-02  1.168E-01 -2.283E-15 -1.781E-14  1.681E-13  1.823E+00  1.078E+03
  2.800E-02  1.231E-01 -2.152E-15 -1.949E-14  1.871E-13  1.047E+00  1.051E+03
  2.800E-02  1.294E-01 -2.007E-15 -2.152E-14  2.083E-13  5.697E-01  1.025E+03
  2.800E-02  1.357E-01 -1.850E-15 -2.415E-14  2.324E-13  2.953E-01  9.993E+02
  2.800E-02  1.420E-01 -1.688E-15 -2.722E-14  2.593E-13  1.475E-01  9.741E+02
  2.800E-02  1.483E-01 -1.520E-15 -3.054E-14  2.890E-13  7.259E-02  9.494E+02
  2.800E-02  1.547E-01 -1.346E-15 -3.423E-14  3.216E-13  3.656E-02  9.253E+02
  2.800E-02  1.610E-01 -1.170E-15 -3.820E-14  3.570E-13  2.003E-02  9.017E+02
  2.800E-02  1.673E-01 -9.976E-16 -4.219E-14  3.949E-13  1.272E-02  8.785E+02
  2.800E-02  1.736E-01 -8.269E-16 -4.603E-14  4.350E-13  9.536E-03  8.559E+02
  2.800E-02  1.799E-01 -6.531E-16 -4.975E-14  4.776E-13  8.093E-03  8.338E+02
  2.800E-02  1.862E-01 -4.714E-16 -5.334E-14  5.225E-13  7.350E-03  8.122E+02
  2.800E-02  1.925E-01 -2.780E-16 -5.685E-14  5.697E-13  6.872E-03  7.911E+02
  2.800E-02  1.988E-01 -7.167E-17 -6.033E-14  6.188E-13  6.486E-03  7.705E+02
  2.800E-02  2.052E-01  1.451E-16 -6.347E-14  6.694E-13  6.131E-03  7.504E+02
  2.800E-02  2.115E-01  3.708E-16 -6.608E-14  7.215E-13  5.792E-03  7.307E+02
  2.800E-02  2.178E-01  6.059E-16 -6.863E-14  7.749E-13  5.469E-03  7.116E+02
  2.800E-02  2.241E-01  8.431E-16 -7.129E-14  8.300E-13  5.168E-03  6.929E+02
  2.800E-02  2.304E-01  1.065E-15 -7.346E-14  8.864E-13  4.891E-03  6.748E+02
  2.800E-02  2.367E-01  1.257E-15 -7.469E-14  9.432E-13  4.641E-03  6.570E+02
  2.800E-02  2.430E-01  1.419E-15 -7.525E-14  1.000E-12  4.413E-03  6.398E+02
  2.800E-02  2.493E-01  1.557E-15 -7.568E-14  1.058E-12  4.202E-03  6.230E+02
  2.800E-02  2.557E-01  1.679E-15 -7.616E-14  1.116E-12  4.004E-03  6.067E+02
  2.800E-02  2.620E-01  1.791E-15 -7.627E-14  1.175E-12  3.813E-03  5.909E+02
  2.800E-02  2.683E-01  1.901E-15 -7.580E-14  1.232E-12  3.627E-03  5.755E+02
  2.800E-02  2.746E-01  2.030E-15 -7.547E-14  1.289E-12  3.444E-03  5.606E+02
  2.800E-02  2.809E-01  2.186E-15 -7.551E-14  1.343E-12  3.267E-03  5.461E+02
  2.800E-02  2.872E-01  2.355E-15 -7.500E-14  1.395E-12  3.096E-03  5.321E+02
  2.800E-02  2.935E-01  2.521E-15 -7.337E-14  1.444E-12  2.937E-03  5.185E+02
  2.800E-02  2.998E-01  2.682E-15 -7.108E-14  1.488E-12  2.791E-03  5.054E+02
  2.800E-02  3.062E-01  2.848E-15 -6.877E-14  1.528E-12  2.661E-03  4.927E+02
  2.800E-02  3.125E-01  3.017E-15 -6.695E-14  1.565E-12  2.546E-03  4.804E+02
  2.800E-02  3.188E-01  3.180E-15 -6.605E-14  1.600E-12  2.442E-03  4.686E+02
  2.800E-02  3.251E-01  3.339E-15 -6.626E-14  1.631E-12  2.346E-03  4.572E+02
  2.800E-02  3.314E-01  3.500E-15 -6.723E-14  1.659E-12  2.253E-03  4.462E+02
  2.800E-02  3.377E-01  3.661E-15 -6.845E-14  1.686E-12  2.161E-03  4.357E+02