VARIABLES="XP","YP","P","U","V","TS","TF"
ZONE T="Zone 001"I=    82 J=    12 F=POINT
  0.000E+00  0.000E+00  1.013E+05  0.000E+00  0.000E+00  2.932E+02  2.936E+02
  0.000E+00  3.156E-03  1.013E+05  0.000E+00  0.000E+00  2.932E+02  2.936E+02
  0.000E+00  9.469E-03  1.013E+05  0.000E+00  0.000E+00  2.936E+02  2.938E+02
  0.000E+00  1.578E-02  1.013E+05  0.000E+00  0.000E+00  2.939E+02  2.940E+02
  0.000E+00  2.209E-02  1.013E+05  0.000E+00  0.000E+00  2.941E+02  2.942E+02
  0.000E+00  2.841E-02  1.013E+05  0.000E+00  0.000E+00  2.943E+02  2.945E+02
  0.000E+00  3.472E-02  1.013E+05  0.000E+00  0.000E+00  2.944E+02  2.949E+02
  0.000E+00  4.103E-02  1.013E+05  0.000E+00  0.000E+00  2.946E+02  2.954E+02
  0.000E+00  4.734E-02  1.013E+05  0.000E+00  0.000E+00  2.948E+02  2.963E+02
  0.000E+00  5.366E-02  1.013E+05  0.000E+00  0.000E+00  2.954E+02  2.981E+02
  0.000E+00  5.997E-02  1.013E+05  0.000E+00  0.000E+00  2.965E+02  3.008E+02
  0.000E+00  6.628E-02  1.013E+05  0.000E+00  0.000E+00  2.991E+02  3.047E+02
  0.000E+00  7.259E-02  1.013E+05  0.000E+00  0.000E+00  3.043E+02  3.127E+02
  0.000E+00  7.891E-02  1.013E+05  0.000E+00  0.000E+00  3.148E+02  3.286E+02
  0.000E+00  8.522E-02  1.013E+05  0.000E+00  0.000E+00  3.346E+02  3.591E+02
  0.000E+00  9.153E-02  1.013E+05  0.000E+00  0.000E+00  3.692E+02  4.189E+02
  0.000E+00  9.784E-02  1.013E+05  0.000E+00  0.000E+00  4.233E+02  5.365E+02
  0.000E+00  1.042E-01  1.013E+05  0.000E+00  0.000E+00  4.992E+02  7.372E+02
  0.000E+00  1.105E-01  1.013E+05  0.000E+00  0.000E+00  4.239E+02  5.186E+02
  0.000E+00  1.168E-01  1.013E+05  0.000E+00  0.000E+00  3.690E+02  4.178E+02
  0.000E+00  1.231E-01  1.013E+05  0.000E+00  0.000E+00  3.342E+02  3.694E+02
  0.000E+00  1.294E-01  1.013E+05  0.000E+00  0.000E+00  3.146E+02  3.353E+02
  0.000E+00  1.357E-01  1.013E+05  0.000E+00  0.000E+00  3.041E+02  3.193E+02
  0.000E+00  1.420E-01  1.013E+05  0.000E+00  0.000E+00  2.989E+02  3.095E+02
  0.000E+00  1.483E-01  1.013E+05  0.000E+00  0.000E+00  2.963E+02  3.042E+02
  0.000E+00  1.547E-01  1.013E+05  0.000E+00  0.000E+00  2.952E+02  3.000E+02
  0.000E+00  1.610E-01  1.013E+05  0.000E+00  0.000E+00  2.946E+02  2.975E+02
  0.000E+00  1.673E-01  1.013E+05  0.000E+00  0.000E+00  2.943E+02  2.959E+02
  0.000E+00  1.736E-01  1.013E+05  0.000E+00  0.000E+00  2.941E+02  2.951E+02
  0.000E+00  1.799E-01  1.013E+05  0.000E+00  0.000E+00  2.940E+02  2.945E+02
  0.000E+00  1.862E-01  1.013E+05  0.000E+00  0.000E+00  2.939E+02  2.942E+02
  0.000E+00  1.925E-01  1.013E+05  0.000E+00  0.000E+00  2.938E+02  2.940E+02
  0.000E+00  1.988E-01  1.013E+05  0.000E+00  0.000E+00  2.937E+02  2.939E+02
  0.000E+00  2.052E-01  1.013E+05  0.000E+00  0.000E+00  2.937E+02  2.938E+02
  0.000E+00  2.115E-01  1.013E+05  0.000E+00  0.000E+00  2.936E+02  2.937E+02
  0.000E+00  2.178E-01  1.013E+05  0.000E+00  0.000E+00  2.936E+02  2.936E+02
  0.000E+00  2.241E-01  1.013E+05  0.000E+00  0.000E+00  2.935E+02  2.935E+02
  0.000E+00  2.304E-01  1.013E+05  0.000E+00  0.000E+00  2.935E+02  2.935E+02
  0.000E+00  2.367E-01  1.013E+05  0.000E+00  0.000E+00  2.934E+02  2.934E+02
  0.000E+00  2.430E-01  1.013E+05  0.000E+00  0.000E+00  2.934E+02  2.934E+02
  0.000E+00  2.493E-01  1.013E+05  0.000E+00  0.000E+00  2.933E+02  2.934E+02
  0.000E+00  2.557E-01  1.013E+05  0.000E+00  0.000E+00  2.933E+02  2.933E+02
  0.000E+00  2.620E-01  1.013E+05  0.000E+00  0.000E+00  2.933E+02  2.933E+02
  0.000E+00  2.683E-01  1.013E+05  0.000E+00  0.000E+00  2.933E+02  2.933E+02
  0.000E+00  2.746E-01  1.013E+05  0.000E+00  0.000E+00  2.932E+02  2.933E+02
  0.000E+00  2.809E-01  1.013E+05  0.000E+00  0.000E+00  2.932E+02  2.932E+02
  0.000E+00  2.872E-01  1.013E+05  0.000E+00  0.000E+00  2.932E+02  2.932E+02
  0.000E+00  2.935E-01  1.013E+05  0.000E+00  0.000E+00  2.932E+02  2.932E+02
  0.000E+00  2.998E-01  1.013E+05  0.000E+00  0.000E+00  2.932E+02  2.932E+02
  0.000E+00  3.062E-01  1.013E+05  0.000E+00  0.000E+00  2.931E+02  2.932E+02
  0.000E+00  3.125E-01  1.013E+05  0.000E+00  0.000E+00  2.931E+02  2.931E+02
  0.000E+00  3.188E-01  1.013E+05  0.000E+00  0.000E+00  2.931E+02  2.931E+02
  0.000E+00  3.251E-01  1.013E+05  0.000E+00  0.000E+00  2.931E+02  2.931E+02
  0.000E+00  3.314E-01  1.013E+05  0.000E+00  0.000E+00  2.931E+02  2.931E+02
  0.000E+00  3.377E-01  1.013E+05  0.000E+00  0.000E+00  2.931E+02  2.931E+02
  0.000E+00  3.440E-01  1.013E+05  0.000E+00  0.000E+00  2.931E+02  2.931E+02
  0.000E+00  3.503E-01  1.013E+05  0.000E+00  0.000E+00  2.931E+02  2.931E+02
  0.000E+00  3.567E-01  1.013E+05  0.000E+00  0.000E+00  2.931E+02  2.931E+02
  0.000E+00  3.630E-01  1.013E+05  0.000E+00  0.000E+00  2.931E+02  2.931E+02
  0.000E+00  3.693E-01  1.013E+05  0.000E+00  0.000E+00  2.931E+02  2.931E+02
  0.000E+00  3.756E-01  1.013E+05  0.000E+00  0.000E+00  2.930E+02  2.931E+02
  0.000E+00  3.819E-01  1.013E+05  0.000E+00  0.000E+00  2.930E+02  2.930E+02
  0.000E+00  3.882E-01  1.013E+05  0.000E+00  0.000E+00  2.930E+02  2.930E+02
  0.000E+00  3.945E-01  1.013E+05  0.000E+00  0.000E+00  2.930E+02  2.930E+02
  0.000E+00  4.008E-01  1.013E+05  0.000E+00  0.000E+00  2.930E+02  2.930E+02
  0.000E+00  4.072E-01  1.013E+05  0.000E+00  0.000E+00  2.930E+02  2.930E+02
  0.000E+00  4.135E-01  1.013E+05  0.000E+00  0.000E+00  2.930E+02  2.930E+02
  0.000E+00  4.198E-01  1.013E+05  0.000E+00  0.000E+00  2.930E+02  2.930E+02
  0.000E+00  4.261E-01  1.013E+05  0.000E+00  0.000E+00  2.930E+02  2.930E+02
  0.000E+00  4.324E-01  1.013E+05  0.000E+00  0.000E+00  2.930E+02  2.930E+02
  0.000E+00  4.387E-01  1.013E+05  0.000E+00  0.000E+00  2.930E+02  2.930E+02
  0.000E+00  4.450E-01  1.013E+05  0.000E+00  0.000E+00  2.930E+02  2.930E+02
  0.000E+00  4.513E-01  1.013E+05  0.000E+00  0.000E+00  2.930E+02  2.930E+02
  0.000E+00  4.577E-01  1.013E+05  0.000E+00  0.000E+00  2.930E+02  2.930E+02
  0.000E+00  4.640E-01  1.013E+05  0.000E+00  0.000E+00  2.930E+02  2.930E+02
  0.000E+00  4.703E-01  1.013E+05  0.000E+00  0.000E+00  2.930E+02  2.930E+02
  0.000E+00  4.766E-01  1.013E+05  0.000E+00  0.000E+00  2.930E+02  2.930E+02
  0.000E+00  4.829E-01  1.013E+05  0.000E+00  0.000E+00  2.930E+02  2.930E+02
  0.000E+00  4.892E-01  1.013E+05  0.000E+00  0.000E+00  2.930E+02  2.930E+02
  0.000E+00  4.955E-01  1.013E+05  0.000E+00  0.000E+00  2.930E+02  2.930E+02
  0.000E+00  5.018E-01  1.013E+05  0.000E+00  0.000E+00  2.930E+02  2.930E+02
  0.000E+00  5.050E-01  1.013E+05  0.000E+00  0.000E+00  2.930E+02  2.930E+02
  1.417E-02  0.000E+00  1.013E+05  0.000E+00  0.000E+00  2.930E+02  2.936E+02
  1.417E-02  3.156E-03  1.013E+05  4.231E-07 -3.898E-05  2.932E+02  2.936E+02
  1.417E-02  9.469E-03  1.013E+05  9.516E-06 -9.239E-06  2.936E+02  2.938E+02
  1.417E-02  1.578E-02  1.013E+05  9.845E-06 -3.181E-06  2.939E+02  2.940E+02
  1.417E-02  2.209E-02  1.013E+05 -5.375E-08  2.201E-06  2.941E+02  2.942E+02
  1.417E-02  2.841E-02  1.013E+05 -6.177E-07  2.371E-06  2.943E+02  2.945E+02
  1.417E-02  3.472E-02  1.013E+05 -2.649E-07  4.409E-06  2.944E+02  2.949E+02
  1.417E-02  4.103E-02  1.013E+05 -1.538E-07  1.544E-06  2.946E+02  2.954E+02
  1.417E-02  4.734E-02  1.013E+05 -6.156E-08 -7.005E-06  2.948E+02  2.963E+02
  1.417E-02  5.366E-02  1.013E+05 -1.012E-08 -7.569E-06  2.954E+02  2.981E+02
  1.417E-02  5.997E-02  1.013E+05 -1.295E-09 -6.178E-06  2.965E+02  3.008E+02
  1.417E-02  6.628E-02  1.013E+05 -6.117E-08 -1.169E-05  2.991E+02  3.047E+02
  1.417E-02  7.259E-02  1.013E+05 -4.988E-08 -2.110E-05  3.043E+02  3.127E+02
  1.417E-02  7.891E-02  1.013E+05 -1.248E-07 -3.633E-05  3.148E+02  3.286E+02
  1.417E-02  8.522E-02  1.013E+05 -5.357E-07 -4.884E-05  3.346E+02  3.591E+02
  1.417E-02  9.153E-02  1.013E+05 -1.829E-09 -4.516E-05  3.692E+02  4.189E+02
  1.417E-02  9.784E-02  1.013E+05  6.298E-06 -1.936E-05  4.233E+02  5.365E+02
  1.417E-02  1.042E-01  1.013E+05  2.021E-08  9.027E-05  4.992E+02  7.372E+02
  1.417E-02  1.105E-01  1.013E+05 -6.545E-07 -9.268E-06  4.239E+02  5.186E+02
  1.417E-02  1.168E-01  1.013E+05 -2.499E-07 -1.934E-05  3.690E+02  4.178E+02
  1.417E-02  1.231E-01  1.013E+05 -1.403E-08 -2.338E-05  3.342E+02  3.694E+02
  1.417E-02  1.294E-01  1.013E+05  1.244E-07 -2.252E-05  3.146E+02  3.353E+02
  1.417E-02  1.357E-01  1.013E+05  2.383E-07 -1.262E-05  3.041E+02  3.193E+02
  1.417E-02  1.420E-01  1.013E+05  2.914E-07 -6.067E-06  2.989E+02  3.095E+02
  1.417E-02  1.483E-01  1.013E+05  6.125E-07  2.635E-06  2.963E+02  3.042E+02
  1.417E-02  1.547E-01  1.013E+05 -3.391E-07  5.925E-06  2.952E+02  3.000E+02
  1.417E-02  1.610E-01  1.013E+05 -9.458E-06 -5.044E-06  2.946E+02  2.975E+02
  1.417E-02  1.673E-01  1.013E+05 -4.715E-07 -8.113E-06  2.943E+02  2.959E+02
  1.417E-02  1.736E-01  1.013E+05  4.714E-07  1.651E-06  2.941E+02  2.951E+02
  1.417E-02  1.799E-01  1.013E+05  1.878E-07  4.252E-06  2.940E+02  2.945E+02
  1.417E-02  1.862E-01  1.013E+05  1.433E-07  2.842E-06  2.939E+02  2.942E+02
  1.417E-02  1.925E-01  1.013E+05  8.473E-08  2.549E-06  2.938E+02  2.940E+02
  1.417E-02  1.988E-01  1.013E+05  4.861E-08  2.150E-06  2.937E+02  2.939E+02
  1.417E-02  2.052E-01  1.013E+05  2.291E-08  1.878E-06  2.937E+02  2.938E+02
  1.417E-02  2.115E-01  1.013E+05  5.515E-09  1.648E-06  2.936E+02  2.937E+02
  1.417E-02  2.178E-01  1.013E+05 -6.171E-09  1.454E-06  2.936E+02  2.936E+02
  1.417E-02  2.241E-01  1.013E+05 -1.384E-08  1.290E-06  2.935E+02  2.935E+02
  1.417E-02  2.304E-01  1.013E+05 -1.874E-08  1.138E-06  2.935E+02  2.935E+02
  1.417E-02  2.367E-01  1.013E+05 -2.179E-08  1.020E-06  2.934E+02  2.934E+02
  1.417E-02  2.430E-01  1.013E+05 -2.376E-08  9.275E-07  2.934E+02  2.934E+02
  1.417E-02  2.493E-01  1.013E+05 -2.518E-08  8.424E-07  2.933E+02  2.934E+02
  1.417E-02  2.557E-01  1.013E+05 -2.642E-08  7.680E-07  2.933E+02  2.933E+02
  1.417E-02  2.620E-01  1.013E+05 -2.781E-08  7.007E-07  2.933E+02  2.933E+02
  1.417E-02  2.683E-01  1.013E+05 -2.965E-08  6.415E-07  2.933E+02  2.933E+02
  1.417E-02  2.746E-01  1.013E+05 -3.230E-08  5.899E-07  2.932E+02  2.933E+02
  1.417E-02  2.809E-01  1.013E+05 -3.618E-08  5.465E-07  2.932E+02  2.932E+02
  1.417E-02  2.872E-01  1.013E+05 -4.186E-08  5.117E-07  2.932E+02  2.932E+02
  1.417E-02  2.935E-01  1.013E+05 -5.017E-08  4.864E-07  2.932E+02  2.932E+02
  1.417E-02  2.998E-01  1.013E+05 -6.221E-08  4.738E-07  2.932E+02  2.932E+02
  1.417E-02  3.062E-01  1.013E+05 -7.988E-08  4.704E-07  2.931E+02  2.932E+02
  1.417E-02  3.125E-01  1.013E+05 -1.043E-07  5.173E-07  2.931E+02  2.931E+02
  1.417E-02  3.188E-01  1.013E+05 -1.467E-07  4.135E-07  2.931E+02  2.931E+02
  1.417E-02  3.251E-01  1.013E+05 -1.667E-07  1.365E-06  2.931E+02  2.931E+02
  1.417E-02  3.314E-01  1.013E+05 -4.364E-07 -3.473E-06  2.931E+02  2.931E+02
  1.417E-02  3.377E-01  1.013E+05  5.595E-07 -9.981E-06  2.931E+02  2.931E+02
  1.417E-02  3.440E-01  1.013E+05  9.694E-06 -3.518E-06  2.931E+02  2.931E+02
  1.417E-02  3.503E-01  1.013E+05  5.708E-07 -3.827E-06  2.931E+02  2.931E+02
  1.417E-02  3.567E-01  1.013E+05 -3.976E-07 -1.079E-05  2.931E+02  2.931E+02
  1.417E-02  3.630E-01  1.013E+05 -1.456E-07 -4.401E-06  2.931E+02  2.931E+02
  1.417E-02  3.693E-01  1.013E+05 -1.258E-07  6.233E-07  2.931E+02  2.931E+02
  1.417E-02  3.756E-01  1.013E+05 -8.607E-08 -1.731E-07  2.930E+02  2.931E+02
  1.417E-02  3.819E-01  1.013E+05 -6.270E-08  5.785E-09  2.930E+02  2.930E+02
  1.417E-02  3.882E-01  1.013E+05 -4.556E-08  2.547E-09  2.930E+02  2.930E+02
  1.417E-02  3.945E-01  1.013E+05 -3.359E-08  1.936E-08  2.930E+02  2.930E+02
  1.417E-02  4.008E-01  1.013E+05 -2.507E-08  2.552E-08  2.930E+02  2.930E+02
  1.417E-02  4.072E-01  1.013E+05 -1.896E-08  2.863E-08  2.930E+02  2.930E+02
  1.417E-02  4.135E-01  1.013E+05 -1.455E-08  2.904E-08  2.930E+02  2.930E+02
  1.417E-02  4.198E-01  1.013E+05 -1.133E-08  2.779E-08  2.930E+02  2.930E+02
  1.417E-02  4.261E-01  1.013E+05 -8.942E-09  2.543E-08  2.930E+02  2.930E+02
  1.417E-02  4.324E-01  1.013E+05 -7.152E-09  2.236E-08  2.930E+02  2.930E+02
  1.417E-02  4.387E-01  1.013E+05 -5.788E-09  1.884E-08  2.930E+02  2.930E+02
  1.417E-02  4.450E-01  1.013E+05 -4.727E-09  1.504E-08  2.930E+02  2.930E+02
  1.417E-02  4.513E-01  1.013E+05 -3.886E-09  1.106E-08  2.930E+02  2.930E+02
  1.417E-02  4.577E-01  1.013E+05 -3.205E-09  6.960E-09  2.930E+02  2.930E+02
  1.417E-02  4.640E-01  1.013E+05 -2.640E-09  2.784E-09  2.930E+02  2.930E+02
  1.417E-02  4.703E-01  1.013E+05 -2.159E-09 -1.452E-09  2.930E+02  2.930E+02
  1.417E-02  4.766E-01  1.013E+05 -1.741E-09 -5.787E-09  2.930E+02  2.930E+02
  1.417E-02  4.829E-01  1.013E+05 -1.367E-09 -9.995E-09  2.930E+02  2.930E+02
  1.417E-02  4.892E-01  1.013E+05 -1.029E-09 -1.546E-08  2.930E+02  2.930E+02
  1.417E-02  4.955E-01  1.013E+05 -6.887E-10 -1.426E-08  2.930E+02  2.930E+02
  1.417E-02  5.018E-01  1.013E+05 -5.028E-10 -5.282E-08  2.930E+02  2.930E+02
  1.417E-02  5.050E-01  1.013E+05 -5.028E-10 -5.282E-08  2.930E+02  2.930E+02
  4.252E-02  0.000E+00  1.013E+05  0.000E+00  0.000E+00  2.930E+02  2.936E+02
  4.252E-02  3.156E-03  1.013E+05  6.015E-07  1.869E-06  2.932E+02  2.936E+02
  4.252E-02  9.469E-03  1.013E+05  6.232E-07 -2.028E-06  2.936E+02  2.938E+02
  4.252E-02  1.578E-02  1.013E+05  6.806E-07 -1.103E-05  2.939E+02  2.940E+02
  4.252E-02  2.209E-02  1.013E+05  5.949E-07 -9.665E-06  2.941E+02  2.942E+02
  4.252E-02  2.841E-02  1.013E+05  5.393E-07  1.469E-06  2.943E+02  2.945E+02
  4.252E-02  3.472E-02  1.013E+05  5.129E-07  6.582E-06  2.944E+02  2.949E+02
  4.252E-02  4.103E-02  1.013E+05  4.959E-07  2.612E-06  2.946E+02  2.955E+02
  4.252E-02  4.734E-02  1.013E+05  4.853E-07 -6.150E-06  2.949E+02  2.964E+02
  4.252E-02  5.366E-02  1.013E+05  4.898E-07 -6.823E-06  2.954E+02  2.981E+02
  4.252E-02  5.997E-02  1.013E+05  4.144E-07 -5.234E-06  2.966E+02  3.011E+02
  4.252E-02  6.628E-02  1.013E+05  3.183E-07 -1.020E-05  2.991E+02  3.066E+02
  4.252E-02  7.259E-02  1.013E+05  2.527E-07 -1.867E-05  3.043E+02  3.166E+02
  4.252E-02  7.891E-02  1.013E+05  1.077E-07 -3.370E-05  3.149E+02  3.347E+02
  4.252E-02  8.522E-02  1.013E+05 -3.782E-07 -4.046E-05  3.346E+02  3.704E+02
  4.252E-02  9.153E-02  1.013E+05  1.019E-07 -3.310E-05  3.685E+02  4.388E+02
  4.252E-02  9.784E-02  1.013E+05  9.932E-07 -2.426E-05  4.238E+02  5.258E+02
  4.252E-02  1.042E-01  1.013E+05  2.324E-08  8.471E-05  4.990E+02  7.380E+02
  4.252E-02  1.105E-01  1.013E+05 -7.040E-07 -1.878E-05  4.239E+02  5.091E+02
  4.252E-02  1.168E-01  1.013E+05 -3.106E-07 -2.701E-05  3.690E+02  4.153E+02
  4.252E-02  1.231E-01  1.013E+05 -8.748E-08 -2.932E-05  3.343E+02  3.695E+02
  4.252E-02  1.294E-01  1.013E+05 -6.696E-09 -2.761E-05  3.146E+02  3.377E+02
  4.252E-02  1.357E-01  1.013E+05  4.808E-08 -1.652E-05  3.041E+02  3.181E+02
  4.252E-02  1.420E-01  1.013E+05  7.373E-08 -8.997E-06  2.989E+02  3.070E+02
  4.252E-02  1.483E-01  1.013E+05  3.880E-07 -4.512E-06  2.964E+02  3.018E+02
  4.252E-02  1.547E-01  1.013E+05 -5.557E-07 -5.814E-06  2.952E+02  2.989E+02
  4.252E-02  1.610E-01  1.013E+05 -1.957E-06 -6.598E-06  2.946E+02  2.968E+02
  4.252E-02  1.673E-01  1.013E+05 -6.306E-07  1.140E-06  2.943E+02  2.956E+02
  4.252E-02  1.736E-01  1.013E+05  3.164E-07  4.407E-06  2.941E+02  2.949E+02
  4.252E-02  1.799E-01  1.013E+05  5.531E-08  2.736E-06  2.940E+02  2.944E+02
  4.252E-02  1.862E-01  1.013E+05  2.262E-08  2.396E-06  2.939E+02  2.941E+02
  4.252E-02  1.925E-01  1.013E+05 -2.535E-08  2.141E-06  2.938E+02  2.940E+02
  4.252E-02  1.988E-01  1.013E+05 -5.258E-08  1.889E-06  2.937E+02  2.939E+02
  4.252E-02  2.052E-01  1.013E+05 -7.035E-08  1.697E-06  2.937E+02  2.938E+02
  4.252E-02  2.115E-01  1.013E+05 -8.056E-08  1.526E-06  2.936E+02  2.937E+02
  4.252E-02  2.178E-01  1.013E+05 -8.567E-08  1.373E-06  2.936E+02  2.936E+02
  4.252E-02  2.241E-01  1.013E+05 -8.729E-08  1.237E-06  2.935E+02  2.935E+02
  4.252E-02  2.304E-01  1.013E+05 -8.663E-08  1.103E-06  2.935E+02  2.935E+02
  4.252E-02  2.367E-01  1.013E+05 -8.465E-08  9.984E-07  2.934E+02  2.934E+02
  4.252E-02  2.430E-01  1.013E+05 -8.204E-08  9.157E-07  2.934E+02  2.934E+02
  4.252E-02  2.493E-01  1.013E+05 -7.928E-08  8.363E-07  2.933E+02  2.934E+02
  4.252E-02  2.557E-01  1.013E+05 -7.668E-08  7.644E-07  2.933E+02  2.933E+02
  4.252E-02  2.620E-01  1.013E+05 -7.446E-08  6.963E-07  2.933E+02  2.933E+02
  4.252E-02  2.683E-01  1.013E+05 -7.284E-08  6.327E-07  2.933E+02  2.933E+02
  4.252E-02  2.746E-01  1.013E+05 -7.207E-08  5.728E-07  2.932E+02  2.933E+02
  4.252E-02  2.809E-01  1.013E+05 -7.244E-08  5.159E-07  2.932E+02  2.932E+02
  4.252E-02  2.872E-01  1.013E+05 -7.436E-08  4.609E-07  2.932E+02  2.932E+02
  4.252E-02  2.935E-01  1.013E+05 -7.841E-08  4.065E-07  2.932E+02  2.932E+02
  4.252E-02  2.998E-01  1.013E+05 -8.541E-08  3.508E-07  2.932E+02  2.932E+02
  4.252E-02  3.062E-01  1.013E+05 -9.681E-08  2.912E-07  2.932E+02  2.932E+02
  4.252E-02  3.125E-01  1.013E+05 -1.130E-07  2.256E-07  2.931E+02  2.931E+02
  4.252E-02  3.188E-01  1.013E+05 -1.445E-07  1.404E-07  2.931E+02  2.931E+02
  4.252E-02  3.251E-01  1.013E+05 -1.495E-07  7.066E-08  2.931E+02  2.931E+02
  4.252E-02  3.314E-01  1.013E+05 -3.963E-07 -2.084E-07  2.931E+02  2.931E+02
  4.252E-02  3.377E-01  1.013E+05  6.227E-07  3.413E-07  2.931E+02  2.931E+02
  4.252E-02  3.440E-01  1.013E+05  2.002E-06 -3.462E-06  2.931E+02  2.931E+02
  4.252E-02  3.503E-01  1.013E+05  6.622E-07 -1.397E-05  2.931E+02  2.931E+02
  4.252E-02  3.567E-01  1.013E+05 -3.436E-07 -1.400E-05  2.931E+02  2.931E+02
  4.252E-02  3.630E-01  1.013E+05 -1.123E-07 -3.177E-06  2.931E+02  2.931E+02
  4.252E-02  3.693E-01  1.013E+05 -1.077E-07  8.937E-07  2.931E+02  2.931E+02
  4.252E-02  3.756E-01  1.013E+05 -7.755E-08  1.131E-07  2.930E+02  2.931E+02
  4.252E-02  3.819E-01  1.013E+05 -6.048E-08  1.898E-07  2.930E+02  2.930E+02
  4.252E-02  3.882E-01  1.013E+05 -4.732E-08  1.350E-07  2.930E+02  2.930E+02
  4.252E-02  3.945E-01  1.013E+05 -3.777E-08  1.128E-07  2.930E+02  2.930E+02
  4.252E-02  4.008E-01  1.013E+05 -3.063E-08  9.236E-08  2.930E+02  2.930E+02
  4.252E-02  4.072E-01  1.013E+05 -2.522E-08  7.680E-08  2.930E+02  2.930E+02
  4.252E-02  4.135E-01  1.013E+05 -2.104E-08  6.412E-08  2.930E+02  2.930E+02
  4.252E-02  4.198E-01  1.013E+05 -1.776E-08  5.363E-08  2.930E+02  2.930E+02
  4.252E-02  4.261E-01  1.013E+05 -1.512E-08  4.473E-08  2.930E+02  2.930E+02
  4.252E-02  4.324E-01  1.013E+05 -1.295E-08  3.700E-08  2.930E+02  2.930E+02
  4.252E-02  4.387E-01  1.013E+05 -1.115E-08  3.013E-08  2.930E+02  2.930E+02
  4.252E-02  4.450E-01  1.013E+05 -9.607E-09  2.392E-08  2.930E+02  2.930E+02
  4.252E-02  4.513E-01  1.013E+05 -8.270E-09  1.818E-08  2.930E+02  2.930E+02
  4.252E-02  4.577E-01  1.013E+05 -7.090E-09  1.281E-08  2.930E+02  2.930E+02
  4.252E-02  4.640E-01  1.013E+05 -6.031E-09  7.699E-09  2.930E+02  2.930E+02
  4.252E-02  4.703E-01  1.013E+05 -5.066E-09  2.772E-09  2.930E+02  2.930E+02
  4.252E-02  4.766E-01  1.013E+05 -4.173E-09 -2.070E-09  2.930E+02  2.930E+02
  4.252E-02  4.829E-01  1.013E+05 -3.333E-09 -6.671E-09  2.930E+02  2.930E+02
  4.252E-02  4.892E-01  1.013E+05 -2.544E-09 -1.232E-08  2.930E+02  2.930E+02
  4.252E-02  4.955E-01  1.013E+05 -1.722E-09 -1.184E-08  2.930E+02  2.930E+02
  4.252E-02  5.018E-01  1.013E+05 -1.275E-09 -4.745E-08  2.930E+02  2.930E+02
  4.252E-02  5.050E-01  1.013E+05 -1.275E-09 -4.745E-08  2.930E+02  2.930E+02
  7.087E-02  0.000E+00  1.013E+05  0.000E+00  0.000E+00  2.930E+02  2.937E+02
  7.087E-02  3.156E-03  1.013E+05  9.087E-07 -3.884E-05  2.932E+02  2.937E+02
  7.087E-02  9.469E-03  1.013E+05  9.096E-07 -8.839E-06  2.936E+02  2.938E+02
  7.087E-02  1.578E-02  1.013E+05  9.095E-07 -3.252E-06  2.939E+02  2.940E+02
  7.087E-02  2.209E-02  1.013E+05  8.133E-07  1.658E-06  2.941E+02  2.943E+02
  7.087E-02  2.841E-02  1.013E+05  7.606E-07  2.167E-06  2.943E+02  2.945E+02
  7.087E-02  3.472E-02  1.013E+05  7.329E-07  4.492E-06  2.944E+02  2.949E+02
  7.087E-02  4.103E-02  1.013E+05  7.108E-07  1.827E-06  2.946E+02  2.956E+02
  7.087E-02  4.734E-02  1.013E+05  6.850E-07 -6.542E-06  2.948E+02  2.967E+02
  7.087E-02  5.366E-02  1.013E+05  6.640E-07 -6.885E-06  2.954E+02  2.985E+02
  7.087E-02  5.997E-02  1.013E+05  5.829E-07 -4.924E-06  2.966E+02  3.013E+02
  7.087E-02  6.628E-02  1.013E+05  5.279E-07 -1.002E-05  2.991E+02  3.071E+02
  7.087E-02  7.259E-02  1.013E+05  4.326E-07 -1.860E-05  3.043E+02  3.174E+02
  7.087E-02  7.891E-02  1.013E+05  1.300E-07 -3.315E-05  3.148E+02  3.356E+02
  7.087E-02  8.522E-02  1.013E+05  9.421E-07 -3.968E-05  3.346E+02  3.713E+02
  7.087E-02  9.153E-02  1.013E+05  1.952E-06 -3.307E-05  3.685E+02  4.388E+02
  7.087E-02  9.784E-02  1.013E+05  7.845E-07 -2.536E-05  4.238E+02  5.269E+02
  7.087E-02  1.042E-01  1.013E+05  9.585E-08  8.437E-05  4.989E+02  7.389E+02
  7.087E-02  1.105E-01  1.013E+05  1.639E-07 -1.919E-05  4.239E+02  5.098E+02
  7.087E-02  1.168E-01  1.013E+05 -1.998E-08 -2.729E-05  3.690E+02  4.170E+02
  7.087E-02  1.231E-01  1.013E+05 -2.288E-07 -2.966E-05  3.343E+02  3.716E+02
  7.087E-02  1.294E-01  1.013E+05 -4.532E-07 -2.807E-05  3.145E+02  3.412E+02
  7.087E-02  1.357E-01  1.013E+05 -5.869E-07 -1.697E-05  3.042E+02  3.189E+02
  7.087E-02  1.420E-01  1.013E+05 -6.055E-07 -9.567E-06  2.989E+02  3.087E+02
  7.087E-02  1.483E-01  1.013E+05 -5.714E-07 -5.201E-06  2.964E+02  3.027E+02
  7.087E-02  1.547E-01  1.013E+05 -5.200E-07 -6.615E-06  2.952E+02  2.996E+02
  7.087E-02  1.610E-01  1.013E+05 -4.902E-07 -6.791E-06  2.947E+02  2.971E+02
  7.087E-02  1.673E-01  1.013E+05 -3.892E-07  1.412E-06  2.943E+02  2.957E+02
  7.087E-02  1.736E-01  1.013E+05 -3.573E-07  4.412E-06  2.942E+02  2.950E+02
  7.087E-02  1.799E-01  1.013E+05 -3.174E-07  2.848E-06  2.940E+02  2.944E+02
  7.087E-02  1.862E-01  1.013E+05 -2.880E-07  2.485E-06  2.939E+02  2.942E+02
  7.087E-02  1.925E-01  1.013E+05 -2.623E-07  2.227E-06  2.938E+02  2.940E+02
  7.087E-02  1.988E-01  1.013E+05 -2.405E-07  1.964E-06  2.937E+02  2.939E+02
  7.087E-02  2.052E-01  1.013E+05 -2.214E-07  1.765E-06  2.937E+02  2.938E+02
  7.087E-02  2.115E-01  1.013E+05 -2.042E-07  1.587E-06  2.936E+02  2.937E+02
  7.087E-02  2.178E-01  1.013E+05 -1.886E-07  1.428E-06  2.936E+02  2.936E+02
  7.087E-02  2.241E-01  1.013E+05 -1.743E-07  1.289E-06  2.935E+02  2.935E+02
  7.087E-02  2.304E-01  1.013E+05 -1.612E-07  1.152E-06  2.935E+02  2.935E+02
  7.087E-02  2.367E-01  1.013E+05 -1.493E-07  1.046E-06  2.934E+02  2.934E+02
  7.087E-02  2.430E-01  1.013E+05 -1.385E-07  9.620E-07  2.934E+02  2.934E+02
  7.087E-02  2.493E-01  1.013E+05 -1.287E-07  8.817E-07  2.934E+02  2.934E+02
  7.087E-02  2.557E-01  1.013E+05 -1.196E-07  8.086E-07  2.933E+02  2.933E+02
  7.087E-02  2.620E-01  1.013E+05 -1.111E-07  7.396E-07  2.933E+02  2.933E+02
  7.087E-02  2.683E-01  1.013E+05 -1.031E-07  6.754E-07  2.933E+02  2.933E+02
  7.087E-02  2.746E-01  1.013E+05 -9.549E-08  6.154E-07  2.932E+02  2.933E+02
  7.087E-02  2.809E-01  1.013E+05 -8.803E-08  5.594E-07  2.932E+02  2.932E+02
  7.087E-02  2.872E-01  1.013E+05 -8.052E-08  5.068E-07  2.932E+02  2.932E+02
  7.087E-02  2.935E-01  1.013E+05 -7.268E-08  4.571E-07  2.932E+02  2.932E+02
  7.087E-02  2.998E-01  1.013E+05 -6.410E-08  4.096E-07  2.932E+02  2.932E+02
  7.087E-02  3.062E-01  1.013E+05 -5.419E-08  3.630E-07  2.932E+02  2.932E+02
  7.087E-02  3.125E-01  1.013E+05 -4.199E-08  3.179E-07  2.931E+02  2.931E+02
  7.087E-02  3.188E-01  1.013E+05 -2.631E-08  2.625E-07  2.931E+02  2.931E+02
  7.087E-02  3.251E-01  1.013E+05 -4.292E-09  2.453E-07  2.931E+02  2.931E+02
  7.087E-02  3.314E-01  1.013E+05  2.414E-08  4.562E-09  2.931E+02  2.931E+02
  7.087E-02  3.377E-01  1.013E+05  7.442E-08  7.989E-07  2.931E+02  2.931E+02
  7.087E-02  3.440E-01  1.013E+05  1.345E-07 -3.333E-06  2.931E+02  2.931E+02
  7.087E-02  3.503E-01  1.013E+05  1.064E-07 -1.435E-05  2.931E+02  2.931E+02
  7.087E-02  3.567E-01  1.013E+05  4.551E-08 -1.426E-05  2.931E+02  2.931E+02
  7.087E-02  3.630E-01  1.013E+05  2.271E-08 -3.336E-06  2.931E+02  2.931E+02
  7.087E-02  3.693E-01  1.013E+05  4.126E-09  7.841E-07  2.931E+02  2.931E+02
  7.087E-02  3.756E-01  1.013E+05 -6.371E-09  4.302E-08  2.930E+02  2.931E+02
  7.087E-02  3.819E-01  1.013E+05 -1.278E-08  1.449E-07  2.930E+02  2.930E+02
  7.087E-02  3.882E-01  1.013E+05 -1.627E-08  1.074E-07  2.930E+02  2.930E+02
  7.087E-02  3.945E-01  1.013E+05 -1.792E-08  9.669E-08  2.930E+02  2.930E+02
  7.087E-02  4.008E-01  1.013E+05 -1.839E-08  8.391E-08  2.930E+02  2.930E+02
  7.087E-02  4.072E-01  1.013E+05 -1.811E-08  7.341E-08  2.930E+02  2.930E+02
  7.087E-02  4.135E-01  1.013E+05 -1.737E-08  6.403E-08  2.930E+02  2.930E+02
  7.087E-02  4.198E-01  1.013E+05 -1.636E-08  5.566E-08  2.930E+02  2.930E+02
  7.087E-02  4.261E-01  1.013E+05 -1.520E-08  4.807E-08  2.930E+02  2.930E+02
  7.087E-02  4.324E-01  1.013E+05 -1.396E-08  4.113E-08  2.930E+02  2.930E+02
  7.087E-02  4.387E-01  1.013E+05 -1.270E-08  3.471E-08  2.930E+02  2.930E+02
  7.087E-02  4.450E-01  1.013E+05 -1.144E-08  2.871E-08  2.930E+02  2.930E+02
  7.087E-02  4.513E-01  1.013E+05 -1.021E-08  2.304E-08  2.930E+02  2.930E+02
  7.087E-02  4.577E-01  1.013E+05 -9.006E-09  1.764E-08  2.930E+02  2.930E+02
  7.087E-02  4.640E-01  1.013E+05 -7.840E-09  1.245E-08  2.930E+02  2.930E+02
  7.087E-02  4.703E-01  1.013E+05 -6.707E-09  7.412E-09  2.930E+02  2.930E+02
  7.087E-02  4.766E-01  1.013E+05 -5.606E-09  2.453E-09  2.930E+02  2.930E+02
  7.087E-02  4.829E-01  1.013E+05 -4.529E-09 -2.292E-09  2.930E+02  2.930E+02
  7.087E-02  4.892E-01  1.013E+05 -3.487E-09 -7.913E-09  2.930E+02  2.930E+02
  7.087E-02  4.955E-01  1.013E+05 -2.374E-09 -8.346E-09  2.930E+02  2.930E+02
  7.087E-02  5.018E-01  1.013E+05 -1.765E-09 -3.928E-08  2.930E+02  2.930E+02
  7.087E-02  5.050E-01  1.013E+05 -1.765E-09 -3.928E-08  2.930E+02  2.930E+02
  9.922E-02  0.000E+00  1.013E+05  0.000E+00  0.000E+00  2.930E+02  2.937E+02
  9.922E-02  3.156E-03  1.013E+05  1.671E-06  2.697E-06  2.932E+02  2.937E+02
  9.922E-02  9.469E-03  1.013E+05  1.930E-06 -1.649E-06  2.936E+02  2.939E+02
  9.922E-02  1.578E-02  1.013E+05  8.009E-07 -1.121E-05  2.939E+02  2.940E+02
  9.922E-02  2.209E-02  1.013E+05 -4.854E-08 -1.010E-05  2.941E+02  2.942E+02
  9.922E-02  2.841E-02  1.013E+05  3.369E-07  1.392E-06  2.943E+02  2.945E+02
  9.922E-02  3.472E-02  1.013E+05  4.190E-07  6.779E-06  2.944E+02  2.950E+02
  9.922E-02  4.103E-02  1.013E+05  4.892E-07  3.030E-06  2.946E+02  2.956E+02
  9.922E-02  4.734E-02  1.013E+05  5.146E-07 -5.582E-06  2.948E+02  2.967E+02
  9.922E-02  5.366E-02  1.013E+05  4.947E-07 -6.192E-06  2.954E+02  2.987E+02
  9.922E-02  5.997E-02  1.013E+05  5.116E-07 -4.794E-06  2.966E+02  3.018E+02
  9.922E-02  6.628E-02  1.013E+05  5.348E-07 -1.014E-05  2.991E+02  3.081E+02
  9.922E-02  7.259E-02  1.013E+05  4.811E-07 -1.981E-05  3.043E+02  3.196E+02
  9.922E-02  7.891E-02  1.013E+05  2.471E-07 -3.059E-05  3.148E+02  3.407E+02
  9.922E-02  8.522E-02  1.013E+05  1.306E-06 -3.170E-05  3.344E+02  3.813E+02
  9.922E-02  9.153E-02  1.013E+05  2.374E-06 -3.418E-05  3.685E+02  4.478E+02
  9.922E-02  9.784E-02  1.013E+05  9.391E-07 -3.331E-05  4.237E+02  5.343E+02
  9.922E-02  1.042E-01  1.013E+05  1.284E-07  8.295E-05  4.989E+02  7.415E+02
  9.922E-02  1.105E-01  1.013E+05  2.111E-07 -1.609E-05  4.240E+02  5.071E+02
  9.922E-02  1.168E-01  1.013E+05 -6.360E-08 -2.179E-05  3.691E+02  4.139E+02
  9.922E-02  1.231E-01  1.013E+05 -3.858E-07 -2.532E-05  3.344E+02  3.705E+02
  9.922E-02  1.294E-01  1.013E+05 -6.321E-07 -2.418E-05  3.145E+02  3.436E+02
  9.922E-02  1.357E-01  1.013E+05 -7.854E-07 -1.450E-05  3.041E+02  3.244E+02
  9.922E-02  1.420E-01  1.013E+05 -8.358E-07 -7.780E-06  2.989E+02  3.135E+02
  9.922E-02  1.483E-01  1.013E+05 -1.073E-06 -3.772E-06  2.964E+02  3.049E+02
  9.922E-02  1.547E-01  1.013E+05 -3.316E-08 -5.285E-06  2.952E+02  3.007E+02
  9.922E-02  1.610E-01  1.013E+05  1.392E-06 -6.055E-06  2.947E+02  2.976E+02
  9.922E-02  1.673E-01  1.013E+05  5.816E-08  1.692E-06  2.944E+02  2.959E+02
  9.922E-02  1.736E-01  1.013E+05 -8.259E-07  4.689E-06  2.942E+02  2.951E+02
  9.922E-02  1.799E-01  1.013E+05 -5.404E-07  3.025E-06  2.940E+02  2.945E+02
  9.922E-02  1.862E-01  1.013E+05 -4.812E-07  2.623E-06  2.939E+02  2.942E+02
  9.922E-02  1.925E-01  1.013E+05 -4.094E-07  2.342E-06  2.938E+02  2.940E+02
  9.922E-02  1.988E-01  1.013E+05 -3.583E-07  2.063E-06  2.937E+02  2.939E+02
  9.922E-02  2.052E-01  1.013E+05 -3.175E-07  1.851E-06  2.937E+02  2.938E+02
  9.922E-02  2.115E-01  1.013E+05 -2.845E-07  1.664E-06  2.936E+02  2.937E+02
  9.922E-02  2.178E-01  1.013E+05 -2.570E-07  1.498E-06  2.936E+02  2.936E+02
  9.922E-02  2.241E-01  1.013E+05 -2.335E-07  1.353E-06  2.935E+02  2.935E+02
  9.922E-02  2.304E-01  1.013E+05 -2.131E-07  1.213E-06  2.935E+02  2.935E+02
  9.922E-02  2.367E-01  1.013E+05 -1.952E-07  1.104E-06  2.934E+02  2.934E+02
  9.922E-02  2.430E-01  1.013E+05 -1.792E-07  1.017E-06  2.934E+02  2.934E+02
  9.922E-02  2.493E-01  1.013E+05 -1.649E-07  9.336E-07  2.934E+02  2.934E+02
  9.922E-02  2.557E-01  1.013E+05 -1.520E-07  8.572E-07  2.933E+02  2.933E+02
  9.922E-02  2.620E-01  1.013E+05 -1.401E-07  7.848E-07  2.933E+02  2.933E+02
  9.922E-02  2.683E-01  1.013E+05 -1.292E-07  7.173E-07  2.933E+02  2.933E+02
  9.922E-02  2.746E-01  1.013E+05 -1.189E-07  6.542E-07  2.932E+02  2.933E+02
  9.922E-02  2.809E-01  1.013E+05 -1.093E-07  5.955E-07  2.932E+02  2.932E+02
  9.922E-02  2.872E-01  1.013E+05 -1.002E-07  5.408E-07  2.932E+02  2.932E+02
  9.922E-02  2.935E-01  1.013E+05 -9.133E-08  4.898E-07  2.932E+02  2.932E+02
  9.922E-02  2.998E-01  1.013E+05 -8.262E-08  4.423E-07  2.932E+02  2.932E+02
  9.922E-02  3.062E-01  1.013E+05 -7.380E-08  3.978E-07  2.932E+02  2.932E+02
  9.922E-02  3.125E-01  1.013E+05 -6.450E-08  3.572E-07  2.931E+02  2.931E+02
  9.922E-02  3.188E-01  1.013E+05 -5.449E-08  3.154E-07  2.931E+02  2.931E+02
  9.922E-02  3.251E-01  1.013E+05 -4.193E-08  3.024E-07  2.931E+02  2.931E+02
  9.922E-02  3.314E-01  1.013E+05 -3.102E-08  1.498E-07  2.931E+02  2.931E+02
  9.922E-02  3.377E-01  1.013E+05  8.597E-10  8.412E-07  2.931E+02  2.931E+02