VARIABLES="XP","YP","P","U","V","TS","TF"
ZONE T="Zone 001"I=    82 J=    12 F=POINT
  0.000E+00  0.000E+00  1.020E+05  0.000E+00  0.000E+00  2.930E+02  2.930E+02
  0.000E+00  3.156E-03  1.020E+05  0.000E+00  0.000E+00  2.930E+02  2.930E+02
  0.000E+00  9.469E-03  1.020E+05  0.000E+00  0.000E+00  2.930E+02  2.930E+02
  0.000E+00  1.578E-02  1.020E+05  0.000E+00  0.000E+00  2.930E+02  2.930E+02
  0.000E+00  2.209E-02  1.020E+05  0.000E+00  0.000E+00  2.930E+02  2.930E+02
  0.000E+00  2.841E-02  1.020E+05  0.000E+00  0.000E+00  2.930E+02  2.930E+02
  0.000E+00  3.472E-02  1.020E+05  0.000E+00  0.000E+00  2.931E+02  2.931E+02
  0.000E+00  4.103E-02  1.020E+05  0.000E+00  0.000E+00  2.931E+02  2.931E+02
  0.000E+00  4.734E-02  1.020E+05  0.000E+00  0.000E+00  2.932E+02  2.932E+02
  0.000E+00  5.366E-02  1.020E+05  0.000E+00  0.000E+00  2.933E+02  2.933E+02
  0.000E+00  5.997E-02  1.020E+05  0.000E+00  0.000E+00  2.935E+02  2.935E+02
  0.000E+00  6.628E-02  1.019E+05  0.000E+00  0.000E+00  2.939E+02  2.939E+02
  0.000E+00  7.259E-02  1.019E+05  0.000E+00  0.000E+00  2.944E+02  2.944E+02
  0.000E+00  7.891E-02  1.019E+05  0.000E+00  0.000E+00  2.951E+02  2.951E+02
  0.000E+00  8.522E-02  1.019E+05  0.000E+00  0.000E+00  2.963E+02  2.962E+02
  0.000E+00  9.153E-02  1.019E+05  0.000E+00  0.000E+00  2.979E+02  2.978E+02
  0.000E+00  9.784E-02  1.019E+05  0.000E+00  0.000E+00  3.002E+02  3.001E+02
  0.000E+00  1.042E-01  1.019E+05  0.000E+00  0.000E+00  3.033E+02  3.032E+02
  0.000E+00  1.105E-01  1.019E+05  0.000E+00  0.000E+00  3.075E+02  3.074E+02
  0.000E+00  1.168E-01  1.019E+05  0.000E+00  0.000E+00  3.130E+02  3.128E+02
  0.000E+00  1.231E-01  1.019E+05  0.000E+00  0.000E+00  3.198E+02  3.196E+02
  0.000E+00  1.294E-01  1.018E+05  0.000E+00  0.000E+00  3.282E+02  3.279E+02
  0.000E+00  1.357E-01  1.018E+05  0.000E+00  0.000E+00  3.380E+02  3.377E+02
  0.000E+00  1.420E-01  1.018E+05  0.000E+00  0.000E+00  3.493E+02  3.488E+02
  0.000E+00  1.483E-01  1.018E+05  0.000E+00  0.000E+00  3.616E+02  3.611E+02
  0.000E+00  1.547E-01  1.018E+05  0.000E+00  0.000E+00  3.746E+02  3.741E+02
  0.000E+00  1.610E-01  1.018E+05  0.000E+00  0.000E+00  3.879E+02  3.873E+02
  0.000E+00  1.673E-01  1.018E+05  0.000E+00  0.000E+00  4.007E+02  4.002E+02
  0.000E+00  1.736E-01  1.018E+05  0.000E+00  0.000E+00  4.126E+02  4.122E+02
  0.000E+00  1.799E-01  1.018E+05  0.000E+00  0.000E+00  4.230E+02  4.226E+02
  0.000E+00  1.862E-01  1.018E+05  0.000E+00  0.000E+00  4.312E+02  4.309E+02
  0.000E+00  1.925E-01  1.018E+05  0.000E+00  0.000E+00  4.370E+02  4.368E+02
  0.000E+00  1.988E-01  1.018E+05  0.000E+00  0.000E+00  4.401E+02  4.400E+02
  0.000E+00  2.052E-01  1.017E+05  0.000E+00  0.000E+00  4.404E+02  4.404E+02
  0.000E+00  2.115E-01  1.017E+05  0.000E+00  0.000E+00  4.380E+02  4.381E+02
  0.000E+00  2.178E-01  1.017E+05  0.000E+00  0.000E+00  4.331E+02  4.333E+02
  0.000E+00  2.241E-01  1.017E+05  0.000E+00  0.000E+00  4.261E+02  4.263E+02
  0.000E+00  2.304E-01  1.017E+05  0.000E+00  0.000E+00  4.173E+02  4.176E+02
  0.000E+00  2.367E-01  1.017E+05  0.000E+00  0.000E+00  4.072E+02  4.076E+02
  0.000E+00  2.430E-01  1.017E+05  0.000E+00  0.000E+00  3.964E+02  3.968E+02
  0.000E+00  2.493E-01  1.017E+05  0.000E+00  0.000E+00  3.852E+02  3.856E+02
  0.000E+00  2.557E-01  1.017E+05  0.000E+00  0.000E+00  3.740E+02  3.745E+02
  0.000E+00  2.620E-01  1.017E+05  0.000E+00  0.000E+00  3.632E+02  3.637E+02
  0.000E+00  2.683E-01  1.017E+05  0.000E+00  0.000E+00  3.531E+02  3.535E+02
  0.000E+00  2.746E-01  1.016E+05  0.000E+00  0.000E+00  3.438E+02  3.441E+02
  0.000E+00  2.809E-01  1.016E+05  0.000E+00  0.000E+00  3.354E+02  3.357E+02
  0.000E+00  2.872E-01  1.016E+05  0.000E+00  0.000E+00  3.279E+02  3.282E+02
  0.000E+00  2.935E-01  1.016E+05  0.000E+00  0.000E+00  3.215E+02  3.218E+02
  0.000E+00  2.998E-01  1.016E+05  0.000E+00  0.000E+00  3.160E+02  3.162E+02
  0.000E+00  3.062E-01  1.016E+05  0.000E+00  0.000E+00  3.114E+02  3.116E+02
  0.000E+00  3.125E-01  1.016E+05  0.000E+00  0.000E+00  3.076E+02  3.077E+02
  0.000E+00  3.188E-01  1.016E+05  0.000E+00  0.000E+00  3.045E+02  3.046E+02
  0.000E+00  3.251E-01  1.016E+05  0.000E+00  0.000E+00  3.019E+02  3.021E+02
  0.000E+00  3.314E-01  1.016E+05  0.000E+00  0.000E+00  2.999E+02  3.000E+02
  0.000E+00  3.377E-01  1.016E+05  0.000E+00  0.000E+00  2.984E+02  2.984E+02
  0.000E+00  3.440E-01  1.016E+05  0.000E+00  0.000E+00  2.971E+02  2.972E+02
  0.000E+00  3.503E-01  1.015E+05  0.000E+00  0.000E+00  2.962E+02  2.962E+02
  0.000E+00  3.567E-01  1.015E+05  0.000E+00  0.000E+00  2.954E+02  2.954E+02
  0.000E+00  3.630E-01  1.015E+05  0.000E+00  0.000E+00  2.948E+02  2.949E+02
  0.000E+00  3.693E-01  1.015E+05  0.000E+00  0.000E+00  2.944E+02  2.944E+02
  0.000E+00  3.756E-01  1.015E+05  0.000E+00  0.000E+00  2.941E+02  2.941E+02
  0.000E+00  3.819E-01  1.015E+05  0.000E+00  0.000E+00  2.939E+02  2.939E+02
  0.000E+00  3.882E-01  1.015E+05  0.000E+00  0.000E+00  2.937E+02  2.937E+02
  0.000E+00  3.945E-01  1.015E+05  0.000E+00  0.000E+00  2.935E+02  2.935E+02
  0.000E+00  4.008E-01  1.015E+05  0.000E+00  0.000E+00  2.934E+02  2.934E+02
  0.000E+00  4.072E-01  1.015E+05  0.000E+00  0.000E+00  2.933E+02  2.934E+02
  0.000E+00  4.135E-01  1.015E+05  0.000E+00  0.000E+00  2.933E+02  2.933E+02
  0.000E+00  4.198E-01  1.014E+05  0.000E+00  0.000E+00  2.932E+02  2.932E+02
  0.000E+00  4.261E-01  1.014E+05  0.000E+00  0.000E+00  2.932E+02  2.932E+02
  0.000E+00  4.324E-01  1.014E+05  0.000E+00  0.000E+00  2.932E+02  2.932E+02
  0.000E+00  4.387E-01  1.014E+05  0.000E+00  0.000E+00  2.932E+02  2.932E+02
  0.000E+00  4.450E-01  1.014E+05  0.000E+00  0.000E+00  2.931E+02  2.931E+02
  0.000E+00  4.513E-01  1.014E+05  0.000E+00  0.000E+00  2.931E+02  2.931E+02
  0.000E+00  4.577E-01  1.014E+05  0.000E+00  0.000E+00  2.931E+02  2.931E+02
  0.000E+00  4.640E-01  1.014E+05  0.000E+00  0.000E+00  2.931E+02  2.931E+02
  0.000E+00  4.703E-01  1.014E+05  0.000E+00  0.000E+00  2.931E+02  2.931E+02
  0.000E+00  4.766E-01  1.014E+05  0.000E+00  0.000E+00  2.931E+02  2.931E+02
  0.000E+00  4.829E-01  1.014E+05  0.000E+00  0.000E+00  2.931E+02  2.931E+02
  0.000E+00  4.892E-01  1.013E+05  0.000E+00  0.000E+00  2.931E+02  2.931E+02
  0.000E+00  4.955E-01  1.013E+05  0.000E+00  0.000E+00  2.931E+02  2.931E+02
  0.000E+00  5.018E-01  1.013E+05  0.000E+00  0.000E+00  2.930E+02  2.930E+02
  0.000E+00  5.050E-01  1.013E+05  0.000E+00  0.000E+00  2.930E+02  2.930E+02
  1.417E-02  0.000E+00  1.021E+05  1.018E-06  6.500E-02  2.930E+02  2.930E+02
  1.417E-02  3.156E-03  1.020E+05  1.018E-06  6.360E-02  2.930E+02  2.930E+02
  1.417E-02  9.469E-03  1.020E+05 -1.981E-07  6.308E-02  2.930E+02  2.930E+02
  1.417E-02  1.578E-02  1.020E+05 -6.981E-08  6.201E-02  2.930E+02  2.930E+02
  1.417E-02  2.209E-02  1.020E+05 -8.001E-08  6.099E-02  2.930E+02  2.930E+02
  1.417E-02  2.841E-02  1.020E+05 -4.313E-08  6.010E-02  2.930E+02  2.930E+02
  1.417E-02  3.472E-02  1.020E+05 -2.864E-08  5.933E-02  2.931E+02  2.931E+02
  1.417E-02  4.103E-02  1.020E+05 -1.331E-08  5.867E-02  2.931E+02  2.931E+02
  1.417E-02  4.734E-02  1.020E+05 -5.751E-10  5.810E-02  2.932E+02  2.932E+02
  1.417E-02  5.366E-02  1.020E+05  2.112E-08  5.761E-02  2.933E+02  2.933E+02
  1.417E-02  5.997E-02  1.020E+05  3.800E-08  5.719E-02  2.935E+02  2.935E+02
  1.417E-02  6.628E-02  1.019E+05  2.210E-08  5.684E-02  2.939E+02  2.939E+02
  1.417E-02  7.259E-02  1.019E+05  1.758E-10  5.653E-02  2.944E+02  2.944E+02
  1.417E-02  7.891E-02  1.019E+05 -1.344E-08  5.626E-02  2.951E+02  2.951E+02
  1.417E-02  8.522E-02  1.019E+05 -2.063E-08  5.603E-02  2.963E+02  2.962E+02
  1.417E-02  9.153E-02  1.019E+05 -1.710E-08  5.582E-02  2.979E+02  2.978E+02
  1.417E-02  9.784E-02  1.019E+05 -1.267E-08  5.565E-02  3.002E+02  3.001E+02
  1.417E-02  1.042E-01  1.019E+05 -1.044E-08  5.550E-02  3.033E+02  3.032E+02
  1.417E-02  1.105E-01  1.019E+05 -8.727E-09  5.537E-02  3.075E+02  3.074E+02
  1.417E-02  1.168E-01  1.019E+05 -7.705E-09  5.525E-02  3.130E+02  3.128E+02
  1.417E-02  1.231E-01  1.019E+05 -6.820E-09  5.515E-02  3.198E+02  3.196E+02
  1.417E-02  1.294E-01  1.018E+05 -5.578E-09  5.506E-02  3.282E+02  3.279E+02
  1.417E-02  1.357E-01  1.018E+05 -4.495E-09  5.499E-02  3.380E+02  3.377E+02
  1.417E-02  1.420E-01  1.018E+05 -3.774E-09  5.494E-02  3.493E+02  3.488E+02
  1.417E-02  1.483E-01  1.018E+05 -2.452E-09  5.489E-02  3.616E+02  3.611E+02
  1.417E-02  1.547E-01  1.018E+05 -1.119E-09  5.484E-02  3.746E+02  3.741E+02
  1.417E-02  1.610E-01  1.018E+05 -7.538E-10  5.481E-02  3.879E+02  3.873E+02
  1.417E-02  1.673E-01  1.018E+05 -4.647E-10  5.478E-02  4.007E+02  4.002E+02
  1.417E-02  1.736E-01  1.018E+05 -1.501E-10  5.475E-02  4.126E+02  4.122E+02
  1.417E-02  1.799E-01  1.018E+05  2.182E-10  5.472E-02  4.230E+02  4.226E+02
  1.417E-02  1.862E-01  1.018E+05  1.081E-09  5.469E-02  4.312E+02  4.309E+02
  1.417E-02  1.925E-01  1.018E+05  1.841E-09  5.466E-02  4.370E+02  4.368E+02
  1.417E-02  1.988E-01  1.018E+05  2.385E-09  5.463E-02  4.401E+02  4.400E+02
  1.417E-02  2.052E-01  1.017E+05  2.640E-09  5.458E-02  4.404E+02  4.404E+02
  1.417E-02  2.115E-01  1.017E+05  3.079E-09  5.454E-02  4.380E+02  4.381E+02
  1.417E-02  2.178E-01  1.017E+05  4.241E-09  5.450E-02  4.331E+02  4.333E+02
  1.417E-02  2.241E-01  1.017E+05  5.221E-09  5.445E-02  4.261E+02  4.263E+02
  1.417E-02  2.304E-01  1.017E+05  6.036E-09  5.440E-02  4.173E+02  4.176E+02
  1.417E-02  2.367E-01  1.017E+05  6.697E-09  5.434E-02  4.072E+02  4.076E+02
  1.417E-02  2.430E-01  1.017E+05  6.640E-09  5.428E-02  3.964E+02  3.968E+02
  1.417E-02  2.493E-01  1.017E+05  6.100E-09  5.422E-02  3.852E+02  3.856E+02
  1.417E-02  2.557E-01  1.017E+05  5.931E-09  5.415E-02  3.740E+02  3.745E+02
  1.417E-02  2.620E-01  1.017E+05  5.942E-09  5.408E-02  3.632E+02  3.637E+02
  1.417E-02  2.683E-01  1.017E+05  5.580E-09  5.401E-02  3.531E+02  3.535E+02
  1.417E-02  2.746E-01  1.016E+05  5.210E-09  5.395E-02  3.438E+02  3.441E+02
  1.417E-02  2.809E-01  1.016E+05  5.020E-09  5.389E-02  3.354E+02  3.357E+02
  1.417E-02  2.872E-01  1.016E+05  4.210E-09  5.382E-02  3.279E+02  3.282E+02
  1.417E-02  2.935E-01  1.016E+05  3.620E-09  5.376E-02  3.215E+02  3.218E+02
  1.417E-02  2.998E-01  1.016E+05  3.620E-09  5.370E-02  3.160E+02  3.162E+02
  1.417E-02  3.062E-01  1.016E+05  3.265E-09  5.365E-02  3.114E+02  3.116E+02
  1.417E-02  3.125E-01  1.016E+05  2.733E-09  5.361E-02  3.076E+02  3.077E+02
  1.417E-02  3.188E-01  1.016E+05  2.237E-09  5.356E-02  3.045E+02  3.046E+02
  1.417E-02  3.251E-01  1.016E+05  2.396E-09  5.352E-02  3.019E+02  3.021E+02
  1.417E-02  3.314E-01  1.016E+05  2.860E-09  5.349E-02  2.999E+02  3.000E+02
  1.417E-02  3.377E-01  1.016E+05  2.755E-09  5.346E-02  2.984E+02  2.984E+02
  1.417E-02  3.440E-01  1.016E+05  2.645E-09  5.344E-02  2.971E+02  2.972E+02
  1.417E-02  3.503E-01  1.015E+05  3.039E-09  5.341E-02  2.962E+02  2.962E+02
  1.417E-02  3.567E-01  1.015E+05  3.806E-09  5.338E-02  2.954E+02  2.954E+02
  1.417E-02  3.630E-01  1.015E+05  3.907E-09  5.337E-02  2.948E+02  2.949E+02
  1.417E-02  3.693E-01  1.015E+05  3.588E-09  5.335E-02  2.944E+02  2.944E+02
  1.417E-02  3.756E-01  1.015E+05  3.710E-09  5.333E-02  2.941E+02  2.941E+02
  1.417E-02  3.819E-01  1.015E+05  3.030E-09  5.332E-02  2.939E+02  2.939E+02
  1.417E-02  3.882E-01  1.015E+05  2.711E-09  5.331E-02  2.937E+02  2.937E+02
  1.417E-02  3.945E-01  1.015E+05  2.777E-09  5.330E-02  2.935E+02  2.935E+02
  1.417E-02  4.008E-01  1.015E+05  2.372E-09  5.329E-02  2.934E+02  2.934E+02
  1.417E-02  4.072E-01  1.015E+05  2.227E-09  5.328E-02  2.933E+02  2.934E+02
  1.417E-02  4.135E-01  1.015E+05  1.531E-09  5.327E-02  2.933E+02  2.933E+02
  1.417E-02  4.198E-01  1.014E+05  1.124E-09  5.327E-02  2.932E+02  2.932E+02
  1.417E-02  4.261E-01  1.014E+05  6.880E-10  5.326E-02  2.932E+02  2.932E+02
  1.417E-02  4.324E-01  1.014E+05 -3.996E-11  5.325E-02  2.932E+02  2.932E+02
  1.417E-02  4.387E-01  1.014E+05 -2.328E-10  5.325E-02  2.932E+02  2.932E+02
  1.417E-02  4.450E-01  1.014E+05 -7.557E-11  5.325E-02  2.931E+02  2.931E+02
  1.417E-02  4.513E-01  1.014E+05 -1.843E-10  5.324E-02  2.931E+02  2.931E+02
  1.417E-02  4.577E-01  1.014E+05 -7.642E-10  5.323E-02  2.931E+02  2.931E+02
  1.417E-02  4.640E-01  1.014E+05 -1.046E-09  5.323E-02  2.931E+02  2.931E+02
  1.417E-02  4.703E-01  1.014E+05 -9.875E-10  5.323E-02  2.931E+02  2.931E+02
  1.417E-02  4.766E-01  1.014E+05 -5.120E-10  5.323E-02  2.931E+02  2.931E+02
  1.417E-02  4.829E-01  1.014E+05 -2.879E-10  5.323E-02  2.931E+02  2.931E+02
  1.417E-02  4.892E-01  1.013E+05 -2.011E-10  5.323E-02  2.931E+02  2.931E+02
  1.417E-02  4.955E-01  1.013E+05 -3.147E-10  5.322E-02  2.931E+02  2.931E+02
  1.417E-02  5.018E-01  1.013E+05 -6.164E-10  5.322E-02  2.930E+02  2.930E+02
  1.417E-02  5.050E-01  1.013E+05 -6.164E-10  5.322E-02  2.930E+02  2.930E+02
  4.252E-02  0.000E+00  1.021E+05  1.019E-06  6.500E-02  2.930E+02  2.930E+02
  4.252E-02  3.156E-03  1.020E+05  1.019E-06  6.361E-02  2.930E+02  2.930E+02
  4.252E-02  9.469E-03  1.020E+05 -2.006E-07  6.308E-02  2.930E+02  2.930E+02
  4.252E-02  1.578E-02  1.020E+05 -7.295E-08  6.201E-02  2.930E+02  2.930E+02
  4.252E-02  2.209E-02  1.020E+05 -8.335E-08  6.099E-02  2.930E+02  2.930E+02
  4.252E-02  2.841E-02  1.020E+05 -4.552E-08  6.010E-02  2.930E+02  2.930E+02
  4.252E-02  3.472E-02  1.020E+05 -3.031E-08  5.933E-02  2.931E+02  2.931E+02
  4.252E-02  4.103E-02  1.020E+05 -1.320E-08  5.867E-02  2.931E+02  2.931E+02
  4.252E-02  4.734E-02  1.020E+05  3.021E-09  5.810E-02  2.932E+02  2.932E+02
  4.252E-02  5.366E-02  1.020E+05  2.745E-08  5.762E-02  2.933E+02  2.933E+02
  4.252E-02  5.997E-02  1.020E+05  4.535E-08  5.719E-02  2.935E+02  2.935E+02
  4.252E-02  6.628E-02  1.019E+05  2.872E-08  5.684E-02  2.939E+02  2.939E+02
  4.252E-02  7.259E-02  1.019E+05  4.039E-09  5.653E-02  2.944E+02  2.944E+02
  4.252E-02  7.891E-02  1.019E+05 -1.235E-08  5.627E-02  2.951E+02  2.951E+02
  4.252E-02  8.522E-02  1.019E+05 -2.131E-08  5.603E-02  2.963E+02  2.962E+02
  4.252E-02  9.153E-02  1.019E+05 -1.955E-08  5.582E-02  2.979E+02  2.978E+02
  4.252E-02  9.784E-02  1.019E+05 -1.653E-08  5.565E-02  3.002E+02  3.001E+02
  4.252E-02  1.042E-01  1.019E+05 -1.532E-08  5.550E-02  3.033E+02  3.032E+02
  4.252E-02  1.105E-01  1.019E+05 -1.438E-08  5.537E-02  3.075E+02  3.074E+02
  4.252E-02  1.168E-01  1.019E+05 -1.386E-08  5.525E-02  3.130E+02  3.128E+02
  4.252E-02  1.231E-01  1.019E+05 -1.260E-08  5.515E-02  3.198E+02  3.196E+02
  4.252E-02  1.294E-01  1.018E+05 -1.092E-08  5.506E-02  3.282E+02  3.279E+02
  4.252E-02  1.357E-01  1.018E+05 -9.658E-09  5.499E-02  3.380E+02  3.377E+02
  4.252E-02  1.420E-01  1.018E+05 -8.187E-09  5.494E-02  3.493E+02  3.488E+02
  4.252E-02  1.483E-01  1.018E+05 -6.124E-09  5.489E-02  3.616E+02  3.611E+02
  4.252E-02  1.547E-01  1.018E+05 -4.022E-09  5.484E-02  3.746E+02  3.741E+02
  4.252E-02  1.610E-01  1.018E+05 -2.894E-09  5.481E-02  3.879E+02  3.873E+02
  4.252E-02  1.673E-01  1.018E+05 -2.036E-09  5.478E-02  4.007E+02  4.002E+02
  4.252E-02  1.736E-01  1.018E+05 -7.389E-10  5.475E-02  4.126E+02  4.122E+02
  4.252E-02  1.799E-01  1.018E+05  8.387E-10  5.472E-02  4.230E+02  4.226E+02
  4.252E-02  1.862E-01  1.018E+05  2.150E-09  5.469E-02  4.312E+02  4.309E+02
  4.252E-02  1.925E-01  1.018E+05  3.291E-09  5.466E-02  4.370E+02  4.368E+02
  4.252E-02  1.988E-01  1.018E+05  4.816E-09  5.463E-02  4.401E+02  4.400E+02
  4.252E-02  2.052E-01  1.017E+05  5.818E-09  5.459E-02  4.404E+02  4.404E+02
  4.252E-02  2.115E-01  1.017E+05  7.130E-09  5.454E-02  4.380E+02  4.381E+02
  4.252E-02  2.178E-01  1.017E+05  9.101E-09  5.450E-02  4.331E+02  4.333E+02
  4.252E-02  2.241E-01  1.017E+05  1.013E-08  5.445E-02  4.261E+02  4.263E+02
  4.252E-02  2.304E-01  1.017E+05  1.136E-08  5.440E-02  4.173E+02  4.176E+02
  4.252E-02  2.367E-01  1.017E+05  1.272E-08  5.434E-02  4.072E+02  4.076E+02
  4.252E-02  2.430E-01  1.017E+05  1.313E-08  5.428E-02  3.964E+02  3.968E+02
  4.252E-02  2.493E-01  1.017E+05  1.316E-08  5.422E-02  3.852E+02  3.856E+02
  4.252E-02  2.557E-01  1.017E+05  1.309E-08  5.415E-02  3.740E+02  3.745E+02
  4.252E-02  2.620E-01  1.017E+05  1.295E-08  5.408E-02  3.633E+02  3.637E+02
  4.252E-02  2.683E-01  1.017E+05  1.261E-08  5.401E-02  3.531E+02  3.535E+02
  4.252E-02  2.746E-01  1.016E+05  1.200E-08  5.395E-02  3.438E+02  3.441E+02
  4.252E-02  2.809E-01  1.016E+05  1.187E-08  5.389E-02  3.354E+02  3.357E+02
  4.252E-02  2.872E-01  1.016E+05  1.131E-08  5.382E-02  3.279E+02  3.282E+02
  4.252E-02  2.935E-01  1.016E+05  1.056E-08  5.376E-02  3.215E+02  3.218E+02
  4.252E-02  2.998E-01  1.016E+05  1.058E-08  5.370E-02  3.160E+02  3.162E+02
  4.252E-02  3.062E-01  1.016E+05  9.641E-09  5.365E-02  3.114E+02  3.116E+02
  4.252E-02  3.125E-01  1.016E+05  8.407E-09  5.361E-02  3.076E+02  3.077E+02
  4.252E-02  3.188E-01  1.016E+05  7.414E-09  5.356E-02  3.045E+02  3.046E+02
  4.252E-02  3.251E-01  1.016E+05  6.468E-09  5.352E-02  3.020E+02  3.021E+02
  4.252E-02  3.314E-01  1.016E+05  6.600E-09  5.349E-02  2.999E+02  3.000E+02
  4.252E-02  3.377E-01  1.016E+05  6.448E-09  5.346E-02  2.984E+02  2.984E+02
  4.252E-02  3.440E-01  1.016E+05  5.970E-09  5.344E-02  2.971E+02  2.972E+02
  4.252E-02  3.503E-01  1.015E+05  6.072E-09  5.341E-02  2.962E+02  2.962E+02
  4.252E-02  3.567E-01  1.015E+05  5.769E-09  5.338E-02  2.954E+02  2.954E+02
  4.252E-02  3.630E-01  1.015E+05  5.220E-09  5.337E-02  2.949E+02  2.949E+02
  4.252E-02  3.693E-01  1.015E+05  4.878E-09  5.335E-02  2.944E+02  2.944E+02
  4.252E-02  3.756E-01  1.015E+05  4.564E-09  5.333E-02  2.941E+02  2.941E+02
  4.252E-02  3.819E-01  1.015E+05  3.551E-09  5.332E-02  2.939E+02  2.939E+02
  4.252E-02  3.882E-01  1.015E+05  2.913E-09  5.331E-02  2.937E+02  2.937E+02
  4.252E-02  3.945E-01  1.015E+05  2.527E-09  5.330E-02  2.935E+02  2.935E+02
  4.252E-02  4.008E-01  1.015E+05  2.213E-09  5.329E-02  2.934E+02  2.934E+02
  4.252E-02  4.072E-01  1.015E+05  1.900E-09  5.328E-02  2.934E+02  2.934E+02
  4.252E-02  4.135E-01  1.015E+05  1.554E-09  5.327E-02  2.933E+02  2.933E+02
  4.252E-02  4.198E-01  1.014E+05  9.844E-10  5.327E-02  2.932E+02  2.932E+02
  4.252E-02  4.261E-01  1.014E+05  6.584E-10  5.326E-02  2.932E+02  2.932E+02
  4.252E-02  4.324E-01  1.014E+05 -3.683E-10  5.325E-02  2.932E+02  2.932E+02
  4.252E-02  4.387E-01  1.014E+05 -8.758E-10  5.325E-02  2.932E+02  2.932E+02
  4.252E-02  4.450E-01  1.014E+05 -6.933E-10  5.325E-02  2.931E+02  2.931E+02
  4.252E-02  4.513E-01  1.014E+05 -7.709E-10  5.324E-02  2.931E+02  2.931E+02
  4.252E-02  4.577E-01  1.014E+05 -1.125E-09  5.323E-02  2.931E+02  2.931E+02
  4.252E-02  4.640E-01  1.014E+05 -1.421E-09  5.323E-02  2.931E+02  2.931E+02
  4.252E-02  4.703E-01  1.014E+05 -1.449E-09  5.323E-02  2.931E+02  2.931E+02
  4.252E-02  4.766E-01  1.014E+05 -1.372E-09  5.323E-02  2.931E+02  2.931E+02
  4.252E-02  4.829E-01  1.014E+05 -1.405E-09  5.323E-02  2.931E+02  2.931E+02
  4.252E-02  4.892E-01  1.013E+05 -9.503E-10  5.323E-02  2.931E+02  2.931E+02
  4.252E-02  4.955E-01  1.013E+05 -6.375E-10  5.322E-02  2.931E+02  2.931E+02
  4.252E-02  5.018E-01  1.013E+05 -8.842E-10  5.322E-02  2.930E+02  2.930E+02
  4.252E-02  5.050E-01  1.013E+05 -8.842E-10  5.322E-02  2.930E+02  2.930E+02
  7.087E-02  0.000E+00  1.021E+05  1.242E-08  6.500E-02  2.930E+02  2.930E+02
  7.087E-02  3.156E-03  1.020E+05  1.242E-08  6.361E-02  2.930E+02  2.930E+02
  7.087E-02  9.469E-03  1.020E+05  3.885E-09  6.308E-02  2.930E+02  2.930E+02
  7.087E-02  1.578E-02  1.020E+05  1.447E-09  6.201E-02  2.930E+02  2.930E+02
  7.087E-02  2.209E-02  1.020E+05 -1.011E-09  6.099E-02  2.930E+02  2.930E+02
  7.087E-02  2.841E-02  1.020E+05 -1.603E-09  6.010E-02  2.930E+02  2.930E+02
  7.087E-02  3.472E-02  1.020E+05 -2.273E-09  5.933E-02  2.931E+02  2.931E+02
  7.087E-02  4.103E-02  1.020E+05 -1.207E-09  5.867E-02  2.931E+02  2.931E+02
  7.087E-02  4.734E-02  1.020E+05  1.524E-09  5.810E-02  2.932E+02  2.932E+02
  7.087E-02  5.366E-02  1.020E+05  3.415E-09  5.762E-02  2.933E+02  2.933E+02
  7.087E-02  5.997E-02  1.020E+05  3.601E-09  5.719E-02  2.935E+02  2.935E+02
  7.087E-02  6.628E-02  1.019E+05  1.164E-09  5.684E-02  2.939E+02  2.939E+02
  7.087E-02  7.259E-02  1.019E+05 -2.781E-09  5.653E-02  2.944E+02  2.944E+02
  7.087E-02  7.891E-02  1.019E+05 -6.554E-09  5.626E-02  2.951E+02  2.951E+02
  7.087E-02  8.522E-02  1.019E+05 -9.208E-09  5.603E-02  2.963E+02  2.962E+02
  7.087E-02  9.153E-02  1.019E+05 -1.179E-08  5.582E-02  2.979E+02  2.978E+02
  7.087E-02  9.784E-02  1.019E+05 -1.372E-08  5.565E-02  3.002E+02  3.001E+02
  7.087E-02  1.042E-01  1.019E+05 -1.566E-08  5.550E-02  3.033E+02  3.032E+02
  7.087E-02  1.105E-01  1.019E+05 -1.698E-08  5.537E-02  3.075E+02  3.074E+02
  7.087E-02  1.168E-01  1.019E+05 -1.720E-08  5.525E-02  3.130E+02  3.128E+02
  7.087E-02  1.231E-01  1.019E+05 -1.715E-08  5.515E-02  3.198E+02  3.196E+02
  7.087E-02  1.294E-01  1.018E+05 -1.637E-08  5.506E-02  3.282E+02  3.279E+02
  7.087E-02  1.357E-01  1.018E+05 -1.542E-08  5.499E-02  3.380E+02  3.377E+02
  7.087E-02  1.420E-01  1.018E+05 -1.400E-08  5.494E-02  3.493E+02  3.488E+02
  7.087E-02  1.483E-01  1.018E+05 -1.275E-08  5.489E-02  3.616E+02  3.611E+02
  7.087E-02  1.547E-01  1.018E+05 -1.108E-08  5.484E-02  3.746E+02  3.741E+02
  7.087E-02  1.610E-01  1.018E+05 -9.363E-09  5.481E-02  3.879E+02  3.873E+02
  7.087E-02  1.673E-01  1.018E+05 -7.575E-09  5.478E-02  4.007E+02  4.002E+02
  7.087E-02  1.736E-01  1.018E+05 -5.406E-09  5.475E-02  4.126E+02  4.122E+02
  7.087E-02  1.799E-01  1.018E+05 -3.642E-09  5.472E-02  4.230E+02  4.226E+02
  7.087E-02  1.862E-01  1.018E+05 -2.300E-09  5.469E-02  4.312E+02  4.309E+02
  7.087E-02  1.925E-01  1.018E+05 -8.130E-10  5.466E-02  4.370E+02  4.368E+02
  7.087E-02  1.988E-01  1.018E+05  9.370E-10  5.463E-02  4.401E+02  4.400E+02
  7.087E-02  2.052E-01  1.017E+05  2.665E-09  5.459E-02  4.404E+02  4.404E+02
  7.087E-02  2.115E-01  1.017E+05  4.217E-09  5.454E-02  4.380E+02  4.381E+02
  7.087E-02  2.178E-01  1.017E+05  5.717E-09  5.450E-02  4.331E+02  4.333E+02
  7.087E-02  2.241E-01  1.017E+05  6.730E-09  5.445E-02  4.261E+02  4.263E+02
  7.087E-02  2.304E-01  1.017E+05  7.526E-09  5.440E-02  4.173E+02  4.176E+02
  7.087E-02  2.367E-01  1.017E+05  8.536E-09  5.434E-02  4.072E+02  4.076E+02
  7.087E-02  2.430E-01  1.017E+05  9.787E-09  5.428E-02  3.964E+02  3.968E+02
  7.087E-02  2.493E-01  1.017E+05  1.090E-08  5.422E-02  3.852E+02  3.856E+02
  7.087E-02  2.557E-01  1.017E+05  1.124E-08  5.415E-02  3.740E+02  3.745E+02
  7.087E-02  2.620E-01  1.017E+05  1.196E-08  5.408E-02  3.633E+02  3.637E+02
  7.087E-02  2.683E-01  1.017E+05  1.290E-08  5.401E-02  3.531E+02  3.535E+02
  7.087E-02  2.746E-01  1.016E+05  1.387E-08  5.395E-02  3.438E+02  3.441E+02
  7.087E-02  2.809E-01  1.016E+05  1.644E-08  5.389E-02  3.354E+02  3.357E+02
  7.087E-02  2.872E-01  1.016E+05  2.100E-08  5.382E-02  3.279E+02  3.282E+02
  7.087E-02  2.935E-01  1.016E+05  2.370E-08  5.376E-02  3.215E+02  3.218E+02
  7.087E-02  2.998E-01  1.016E+05  2.088E-08  5.370E-02  3.160E+02  3.162E+02
  7.087E-02  3.062E-01  1.016E+05  1.612E-08  5.365E-02  3.114E+02  3.116E+02
  7.087E-02  3.125E-01  1.016E+05  1.338E-08  5.361E-02  3.076E+02  3.077E+02
  7.087E-02  3.188E-01  1.016E+05  1.186E-08  5.356E-02  3.045E+02  3.046E+02
  7.087E-02  3.251E-01  1.016E+05  1.052E-08  5.352E-02  3.020E+02  3.021E+02
  7.087E-02  3.314E-01  1.016E+05  9.874E-09  5.349E-02  2.999E+02  3.000E+02
  7.087E-02  3.377E-01  1.016E+05  9.794E-09  5.346E-02  2.984E+02  2.984E+02
  7.087E-02  3.440E-01  1.016E+05  9.697E-09  5.344E-02  2.971E+02  2.972E+02
  7.087E-02  3.503E-01  1.015E+05  9.452E-09  5.341E-02  2.962E+02  2.962E+02
  7.087E-02  3.567E-01  1.015E+05  8.996E-09  5.338E-02  2.954E+02  2.954E+02
  7.087E-02  3.630E-01  1.015E+05  8.609E-09  5.337E-02  2.949E+02  2.949E+02
  7.087E-02  3.693E-01  1.015E+05  8.449E-09  5.335E-02  2.944E+02  2.944E+02
  7.087E-02  3.756E-01  1.015E+05  8.097E-09  5.333E-02  2.941E+02  2.941E+02
  7.087E-02  3.819E-01  1.015E+05  7.882E-09  5.332E-02  2.939E+02  2.939E+02
  7.087E-02  3.882E-01  1.015E+05  7.395E-09  5.331E-02  2.937E+02  2.937E+02
  7.087E-02  3.945E-01  1.015E+05  6.870E-09  5.330E-02  2.935E+02  2.935E+02
  7.087E-02  4.008E-01  1.015E+05  6.397E-09  5.329E-02  2.934E+02  2.934E+02
  7.087E-02  4.072E-01  1.015E+05  6.028E-09  5.328E-02  2.934E+02  2.934E+02
  7.087E-02  4.135E-01  1.015E+05  6.375E-09  5.327E-02  2.933E+02  2.933E+02
  7.087E-02  4.198E-01  1.014E+05  5.887E-09  5.327E-02  2.932E+02  2.932E+02
  7.087E-02  4.261E-01  1.014E+05  5.132E-09  5.326E-02  2.932E+02  2.932E+02
  7.087E-02  4.324E-01  1.014E+05  4.698E-09  5.325E-02  2.932E+02  2.932E+02
  7.087E-02  4.387E-01  1.014E+05  4.201E-09  5.325E-02  2.932E+02  2.932E+02
  7.087E-02  4.450E-01  1.014E+05  3.370E-09  5.325E-02  2.931E+02  2.931E+02
  7.087E-02  4.513E-01  1.014E+05  2.758E-09  5.324E-02  2.931E+02  2.931E+02
  7.087E-02  4.577E-01  1.014E+05  2.270E-09  5.323E-02  2.931E+02  2.931E+02
  7.087E-02  4.640E-01  1.014E+05  2.030E-09  5.323E-02  2.931E+02  2.931E+02
  7.087E-02  4.703E-01  1.014E+05  1.806E-09  5.323E-02  2.931E+02  2.931E+02
  7.087E-02  4.766E-01  1.014E+05  8.427E-10  5.323E-02  2.931E+02  2.931E+02
  7.087E-02  4.829E-01  1.014E+05  2.385E-10  5.323E-02  2.931E+02  2.931E+02
  7.087E-02  4.892E-01  1.013E+05 -3.793E-11  5.323E-02  2.931E+02  2.931E+02
  7.087E-02  4.955E-01  1.013E+05 -4.468E-10  5.322E-02  2.931E+02  2.931E+02
  7.087E-02  5.018E-01  1.013E+05 -6.514E-10  5.322E-02  2.930E+02  2.930E+02
  7.087E-02  5.050E-01  1.013E+05 -6.514E-10  5.322E-02  2.930E+02  2.930E+02
  9.922E-02  0.000E+00  1.021E+05  1.133E-08  6.500E-02  2.930E+02  2.930E+02
  9.922E-02  3.156E-03  1.020E+05  1.133E-08  6.361E-02  2.930E+02  2.930E+02
  9.922E-02  9.469E-03  1.020E+05  6.387E-09  6.308E-02  2.930E+02  2.930E+02
  9.922E-02  1.578E-02  1.020E+05  3.314E-09  6.201E-02  2.930E+02  2.930E+02
  9.922E-02  2.209E-02  1.020E+05  7.565E-10  6.099E-02  2.930E+02  2.930E+02
  9.922E-02  2.841E-02  1.020E+05  4.469E-10  6.010E-02  2.930E+02  2.930E+02
  9.922E-02  3.472E-02  1.020E+05  6.140E-10  5.933E-02  2.931E+02  2.931E+02
  9.922E-02  4.103E-02  1.020E+05 -3.057E-10  5.867E-02  2.931E+02  2.931E+02
  9.922E-02  4.734E-02  1.020E+05 -2.840E-09  5.810E-02  2.932E+02  2.932E+02
  9.922E-02  5.366E-02  1.020E+05 -4.936E-09  5.762E-02  2.933E+02  2.933E+02
  9.922E-02  5.997E-02  1.020E+05 -7.226E-09  5.719E-02  2.935E+02  2.935E+02
  9.922E-02  6.628E-02  1.019E+05 -9.820E-09  5.684E-02  2.939E+02  2.939E+02
  9.922E-02  7.259E-02  1.019E+05 -1.224E-08  5.653E-02  2.944E+02  2.944E+02
  9.922E-02  7.891E-02  1.019E+05 -1.514E-08  5.626E-02  2.951E+02  2.951E+02
  9.922E-02  8.522E-02  1.019E+05 -1.758E-08  5.603E-02  2.963E+02  2.962E+02
  9.922E-02  9.153E-02  1.019E+05 -1.948E-08  5.582E-02  2.979E+02  2.978E+02
  9.922E-02  9.784E-02  1.019E+05 -2.211E-08  5.565E-02  3.002E+02  3.001E+02
  9.922E-02  1.042E-01  1.019E+05 -2.484E-08  5.550E-02  3.033E+02  3.032E+02
  9.922E-02  1.105E-01  1.019E+05 -2.697E-08  5.537E-02  3.075E+02  3.074E+02
  9.922E-02  1.168E-01  1.019E+05 -2.876E-08  5.525E-02  3.130E+02  3.128E+02
  9.922E-02  1.231E-01  1.019E+05 -3.109E-08  5.515E-02  3.198E+02  3.196E+02
  9.922E-02  1.294E-01  1.018E+05 -3.279E-08  5.506E-02  3.282E+02  3.279E+02
  9.922E-02  1.357E-01  1.018E+05 -3.410E-08  5.499E-02  3.380E+02  3.376E+02
  9.922E-02  1.420E-01  1.018E+05 -3.412E-08  5.494E-02  3.493E+02  3.488E+02
  9.922E-02  1.483E-01  1.018E+05 -3.262E-08  5.489E-02  3.616E+02  3.611E+02
  9.922E-02  1.547E-01  1.018E+05 -2.979E-08  5.484E-02  3.746E+02  3.741E+02
  9.922E-02  1.610E-01  1.018E+05 -2.649E-08  5.481E-02  3.879E+02  3.873E+02
  9.922E-02  1.673E-01  1.018E+05 -2.342E-08  5.478E-02  4.007E+02  4.002E+02
  9.922E-02  1.736E-01  1.018E+05 -2.037E-08  5.475E-02  4.126E+02  4.122E+02
  9.922E-02  1.799E-01  1.018E+05 -1.818E-08  5.472E-02  4.230E+02  4.225E+02
  9.922E-02  1.862E-01  1.018E+05 -1.529E-08  5.469E-02  4.312E+02  4.309E+02
  9.922E-02  1.925E-01  1.018E+05 -1.229E-08  5.466E-02  4.370E+02  4.368E+02
  9.922E-02  1.988E-01  1.018E+05 -1.037E-08  5.463E-02  4.401E+02  4.400E+02
  9.922E-02  2.052E-01  1.017E+05 -8.027E-09  5.459E-02  4.404E+02  4.404E+02
  9.922E-02  2.115E-01  1.017E+05 -6.323E-09  5.454E-02  4.380E+02  4.381E+02
  9.922E-02  2.178E-01  1.017E+05 -5.030E-09  5.450E-02  4.331E+02  4.333E+02
  9.922E-02  2.241E-01  1.017E+05 -2.579E-09  5.445E-02  4.261E+02  4.263E+02
  9.922E-02  2.304E-01  1.017E+05 -9.805E-10  5.440E-02  4.173E+02  4.176E+02
  9.922E-02  2.367E-01  1.017E+05  8.570E-11  5.434E-02  4.072E+02  4.076E+02
  9.922E-02  2.430E-01  1.017E+05  1.107E-09  5.428E-02  3.964E+02  3.968E+02
  9.922E-02  2.493E-01  1.017E+05  1.304E-09  5.422E-02  3.852E+02  3.856E+02
  9.922E-02  2.557E-01  1.017E+05  7.841E-10  5.415E-02  3.740E+02  3.745E+02
  9.922E-02  2.620E-01  1.017E+05 -9.329E-10  5.408E-02  3.633E+02  3.637E+02
  9.922E-02  2.683E-01  1.017E+05 -3.336E-09  5.401E-02  3.531E+02  3.535E+02
  9.922E-02  2.746E-01  1.016E+05 -1.554E-08  5.395E-02  3.438E+02  3.441E+02
  9.922E-02  2.809E-01  1.016E+05 -9.341E-09  5.389E-02  3.354E+02  3.357E+02
  9.922E-02  2.872E-01  1.016E+05  7.294E-08  5.382E-02  3.279E+02  3.282E+02
  9.922E-02  2.935E-01  1.016E+05  1.335E-07  5.376E-02  3.215E+02  3.218E+02
  9.922E-02  2.998E-01  1.016E+05  6.527E-08  5.370E-02  3.160E+02  3.162E+02
  9.922E-02  3.062E-01  1.016E+05 -1.030E-08  5.365E-02  3.114E+02  3.116E+02
  9.922E-02  3.125E-01  1.016E+05 -1.117E-08  5.361E-02  3.076E+02  3.077E+02
  9.922E-02  3.188E-01  1.016E+05  2.242E-09  5.356E-02  3.045E+02  3.046E+02
  9.922E-02  3.251E-01  1.016E+05  6.746E-09  5.352E-02  3.020E+02  3.021E+02
  9.922E-02  3.314E-01  1.016E+05  9.993E-09  5.349E-02  2.999E+02  3.000E+02
  9.922E-02  3.377E-01  1.016E+05  1.238E-08  5.346E-02  2.984E+02  2.984E+02