VARIABLES="XP","YP","P","U","V","TS","TF"
ZONE T="Zone 001"I=    62 J=    22 F=POINT
  0.000E+00  0.000E+00 -5.055E-03  0.000E+00  0.000E+00  2.930E+02  2.930E+02
  0.000E+00  4.208E-03 -5.055E-03  0.000E+00  0.000E+00  2.930E+02  2.930E+02
  0.000E+00  1.262E-02 -5.056E-03  0.000E+00  0.000E+00  2.930E+02  2.930E+02
  0.000E+00  2.104E-02 -5.056E-03  0.000E+00  0.000E+00  2.930E+02  2.930E+02
  0.000E+00  2.946E-02 -5.056E-03  0.000E+00  0.000E+00  2.930E+02  2.930E+02
  0.000E+00  3.787E-02 -5.056E-03  0.000E+00  0.000E+00  2.930E+02  2.930E+02
  0.000E+00  4.629E-02 -5.056E-03  0.000E+00  0.000E+00  2.930E+02  2.931E+02
  0.000E+00  5.471E-02 -5.056E-03  0.000E+00  0.000E+00  2.930E+02  2.932E+02
  0.000E+00  6.313E-02 -5.056E-03  0.000E+00  0.000E+00  2.930E+02  2.935E+02
  0.000E+00  7.154E-02 -5.056E-03  0.000E+00  0.000E+00  2.930E+02  2.942E+02
  0.000E+00  7.996E-02 -5.056E-03  0.000E+00  0.000E+00  2.930E+02  2.961E+02
  0.000E+00  8.838E-02 -5.056E-03  0.000E+00  0.000E+00  2.930E+02  3.006E+02
  0.000E+00  9.679E-02 -5.056E-03  0.000E+00  0.000E+00  2.930E+02  3.109E+02
  0.000E+00  1.052E-01 -5.055E-03  0.000E+00  0.000E+00  2.930E+02  3.334E+02
  0.000E+00  1.136E-01 -5.055E-03  0.000E+00  0.000E+00  2.930E+02  3.109E+02
  0.000E+00  1.220E-01 -5.055E-03  0.000E+00  0.000E+00  2.930E+02  3.006E+02
  0.000E+00  1.305E-01 -5.055E-03  0.000E+00  0.000E+00  2.930E+02  2.961E+02
  0.000E+00  1.389E-01 -5.054E-03  0.000E+00  0.000E+00  2.930E+02  2.942E+02
  0.000E+00  1.473E-01 -5.054E-03  0.000E+00  0.000E+00  2.930E+02  2.935E+02
  0.000E+00  1.557E-01 -5.053E-03  0.000E+00  0.000E+00  2.930E+02  2.932E+02
  0.000E+00  1.641E-01 -5.052E-03  0.000E+00  0.000E+00  2.930E+02  2.931E+02
  0.000E+00  1.725E-01 -5.051E-03  0.000E+00  0.000E+00  2.930E+02  2.930E+02
  0.000E+00  1.810E-01 -5.050E-03  0.000E+00  0.000E+00  2.930E+02  2.930E+02
  0.000E+00  1.894E-01 -5.049E-03  0.000E+00  0.000E+00  2.930E+02  2.930E+02
  0.000E+00  1.978E-01 -5.048E-03  0.000E+00  0.000E+00  2.930E+02  2.930E+02
  0.000E+00  2.062E-01 -5.046E-03  0.000E+00  0.000E+00  2.930E+02  2.930E+02
  0.000E+00  2.146E-01 -5.044E-03  0.000E+00  0.000E+00  2.930E+02  2.930E+02
  0.000E+00  2.230E-01 -5.041E-03  0.000E+00  0.000E+00  2.930E+02  2.930E+02
  0.000E+00  2.315E-01 -5.038E-03  0.000E+00  0.000E+00  2.930E+02  2.930E+02
  0.000E+00  2.399E-01 -5.035E-03  0.000E+00  0.000E+00  2.930E+02  2.930E+02
  0.000E+00  2.483E-01 -5.031E-03  0.000E+00  0.000E+00  2.930E+02  2.930E+02
  0.000E+00  2.567E-01 -5.026E-03  0.000E+00  0.000E+00  2.930E+02  2.930E+02
  0.000E+00  2.651E-01 -5.020E-03  0.000E+00  0.000E+00  2.930E+02  2.930E+02
  0.000E+00  2.735E-01 -5.014E-03  0.000E+00  0.000E+00  2.930E+02  2.930E+02
  0.000E+00  2.820E-01 -5.006E-03  0.000E+00  0.000E+00  2.930E+02  2.930E+02
  0.000E+00  2.904E-01 -4.996E-03  0.000E+00  0.000E+00  2.930E+02  2.930E+02
  0.000E+00  2.988E-01 -4.985E-03  0.000E+00  0.000E+00  2.930E+02  2.930E+02
  0.000E+00  3.072E-01 -4.972E-03  0.000E+00  0.000E+00  2.930E+02  2.930E+02
  0.000E+00  3.156E-01 -4.957E-03  0.000E+00  0.000E+00  2.930E+02  2.930E+02
  0.000E+00  3.240E-01 -4.938E-03  0.000E+00  0.000E+00  2.930E+02  2.930E+02
  0.000E+00  3.325E-01 -4.917E-03  0.000E+00  0.000E+00  2.930E+02  2.930E+02
  0.000E+00  3.409E-01 -4.891E-03  0.000E+00  0.000E+00  2.930E+02  2.930E+02
  0.000E+00  3.493E-01 -4.861E-03  0.000E+00  0.000E+00  2.930E+02  2.930E+02
  0.000E+00  3.577E-01 -4.825E-03  0.000E+00  0.000E+00  2.930E+02  2.930E+02
  0.000E+00  3.661E-01 -4.783E-03  0.000E+00  0.000E+00  2.930E+02  2.930E+02
  0.000E+00  3.745E-01 -4.733E-03  0.000E+00  0.000E+00  2.930E+02  2.930E+02
  0.000E+00  3.830E-01 -4.674E-03  0.000E+00  0.000E+00  2.930E+02  2.930E+02
  0.000E+00  3.914E-01 -4.604E-03  0.000E+00  0.000E+00  2.930E+02  2.930E+02
  0.000E+00  3.998E-01 -4.521E-03  0.000E+00  0.000E+00  2.930E+02  2.930E+02
  0.000E+00  4.082E-01 -4.423E-03  0.000E+00  0.000E+00  2.930E+02  2.930E+02
  0.000E+00  4.166E-01 -4.306E-03  0.000E+00  0.000E+00  2.930E+02  2.930E+02
  0.000E+00  4.250E-01 -4.168E-03  0.000E+00  0.000E+00  2.930E+02  2.931E+02
  0.000E+00  4.335E-01 -4.005E-03  0.000E+00  0.000E+00  2.930E+02  2.932E+02
  0.000E+00  4.419E-01 -3.810E-03  0.000E+00  0.000E+00  2.930E+02  2.934E+02
  0.000E+00  4.503E-01 -3.578E-03  0.000E+00  0.000E+00  2.930E+02  2.941E+02
  0.000E+00  4.587E-01 -3.300E-03  0.000E+00  0.000E+00  2.930E+02  2.957E+02
  0.000E+00  4.671E-01 -2.963E-03  0.000E+00  0.000E+00  2.930E+02  2.996E+02
  0.000E+00  4.755E-01 -2.569E-03  0.000E+00  0.000E+00  2.930E+02  3.087E+02
  0.000E+00  4.840E-01 -2.024E-03  0.000E+00  0.000E+00  2.930E+02  3.288E+02
  0.000E+00  4.924E-01 -1.603E-03  0.000E+00  0.000E+00  2.930E+02  3.695E+02
  0.000E+00  5.008E-01 -1.721E-04  0.000E+00  0.000E+00  2.954E+02  4.478E+02
  0.000E+00  5.050E-01 -1.721E-04  0.000E+00  0.000E+00  2.954E+02  4.478E+02
  4.000E-03  0.000E+00 -4.520E-03 -8.106E-04  0.000E+00  2.930E+02  2.930E+02
  4.000E-03  4.208E-03 -4.519E-03 -8.106E-04 -1.616E-07  2.930E+02  2.930E+02
  4.000E-03  1.262E-02 -4.520E-03 -8.105E-04  6.683E-07  2.930E+02  2.930E+02
  4.000E-03  2.104E-02 -4.520E-03 -8.104E-04  2.402E-07  2.930E+02  2.930E+02
  4.000E-03  2.946E-02 -4.520E-03 -8.104E-04  1.906E-07  2.930E+02  2.930E+02
  4.000E-03  3.787E-02 -4.521E-03 -8.104E-04  1.049E-07  2.930E+02  2.930E+02
  4.000E-03  4.629E-02 -4.521E-03 -8.104E-04  5.125E-08  2.930E+02  2.931E+02
  4.000E-03  5.471E-02 -4.521E-03 -8.104E-04  4.234E-09  2.930E+02  2.932E+02
  4.000E-03  6.313E-02 -4.521E-03 -8.104E-04 -3.799E-08  2.930E+02  2.935E+02
  4.000E-03  7.154E-02 -4.521E-03 -8.104E-04 -7.940E-08  2.930E+02  2.942E+02
  4.000E-03  7.996E-02 -4.520E-03 -8.104E-04 -1.216E-07  2.930E+02  2.961E+02
  4.000E-03  8.838E-02 -4.520E-03 -8.104E-04 -1.666E-07  2.930E+02  3.006E+02
  4.000E-03  9.679E-02 -4.520E-03 -8.104E-04 -2.160E-07  2.930E+02  3.109E+02
  4.000E-03  1.052E-01 -4.520E-03 -8.104E-04 -2.714E-07  2.930E+02  3.334E+02
  4.000E-03  1.136E-01 -4.520E-03 -8.104E-04 -3.341E-07  2.930E+02  3.109E+02
  4.000E-03  1.220E-01 -4.519E-03 -8.103E-04 -4.063E-07  2.930E+02  3.006E+02
  4.000E-03  1.305E-01 -4.519E-03 -8.103E-04 -4.898E-07  2.930E+02  2.961E+02
  4.000E-03  1.389E-01 -4.519E-03 -8.103E-04 -5.871E-07  2.930E+02  2.942E+02
  4.000E-03  1.473E-01 -4.518E-03 -8.103E-04 -7.009E-07  2.930E+02  2.935E+02
  4.000E-03  1.557E-01 -4.518E-03 -8.103E-04 -8.345E-07  2.930E+02  2.932E+02
  4.000E-03  1.641E-01 -4.517E-03 -8.102E-04 -9.916E-07  2.930E+02  2.931E+02
  4.000E-03  1.725E-01 -4.516E-03 -8.102E-04 -1.176E-06  2.930E+02  2.930E+02
  4.000E-03  1.810E-01 -4.515E-03 -8.102E-04 -1.394E-06  2.930E+02  2.930E+02
  4.000E-03  1.894E-01 -4.514E-03 -8.101E-04 -1.652E-06  2.930E+02  2.930E+02
  4.000E-03  1.978E-01 -4.512E-03 -8.101E-04 -1.955E-06  2.930E+02  2.930E+02
  4.000E-03  2.062E-01 -4.511E-03 -8.100E-04 -2.314E-06  2.930E+02  2.930E+02
  4.000E-03  2.146E-01 -4.508E-03 -8.099E-04 -2.738E-06  2.930E+02  2.930E+02
  4.000E-03  2.230E-01 -4.506E-03 -8.098E-04 -3.238E-06  2.930E+02  2.930E+02
  4.000E-03  2.315E-01 -4.503E-03 -8.097E-04 -3.830E-06  2.930E+02  2.930E+02
  4.000E-03  2.399E-01 -4.500E-03 -8.096E-04 -4.529E-06  2.930E+02  2.930E+02
  4.000E-03  2.483E-01 -4.496E-03 -8.095E-04 -5.356E-06  2.930E+02  2.930E+02
  4.000E-03  2.567E-01 -4.491E-03 -8.093E-04 -6.333E-06  2.930E+02  2.930E+02
  4.000E-03  2.651E-01 -4.486E-03 -8.091E-04 -7.488E-06  2.930E+02  2.930E+02
  4.000E-03  2.735E-01 -4.479E-03 -8.088E-04 -8.853E-06  2.930E+02  2.930E+02
  4.000E-03  2.820E-01 -4.471E-03 -8.086E-04 -1.047E-05  2.930E+02  2.930E+02
  4.000E-03  2.904E-01 -4.462E-03 -8.082E-04 -1.238E-05  2.930E+02  2.930E+02
  4.000E-03  2.988E-01 -4.451E-03 -8.078E-04 -1.463E-05  2.930E+02  2.930E+02
  4.000E-03  3.072E-01 -4.438E-03 -8.073E-04 -1.730E-05  2.930E+02  2.930E+02
  4.000E-03  3.156E-01 -4.423E-03 -8.068E-04 -2.045E-05  2.930E+02  2.930E+02
  4.000E-03  3.240E-01 -4.405E-03 -8.061E-04 -2.418E-05  2.930E+02  2.930E+02
  4.000E-03  3.325E-01 -4.384E-03 -8.053E-04 -2.859E-05  2.930E+02  2.930E+02
  4.000E-03  3.409E-01 -4.359E-03 -8.044E-04 -3.381E-05  2.930E+02  2.930E+02
  4.000E-03  3.493E-01 -4.329E-03 -8.033E-04 -3.998E-05  2.930E+02  2.930E+02
  4.000E-03  3.577E-01 -4.294E-03 -8.020E-04 -4.727E-05  2.930E+02  2.930E+02
  4.000E-03  3.661E-01 -4.253E-03 -8.004E-04 -5.590E-05  2.930E+02  2.930E+02
  4.000E-03  3.745E-01 -4.204E-03 -7.986E-04 -6.612E-05  2.930E+02  2.930E+02
  4.000E-03  3.830E-01 -4.146E-03 -7.964E-04 -7.822E-05  2.930E+02  2.930E+02
  4.000E-03  3.914E-01 -4.077E-03 -7.938E-04 -9.255E-05  2.930E+02  2.930E+02
  4.000E-03  3.998E-01 -3.996E-03 -7.907E-04 -1.095E-04  2.930E+02  2.930E+02
  4.000E-03  4.082E-01 -3.900E-03 -7.869E-04 -1.297E-04  2.930E+02  2.930E+02
  4.000E-03  4.166E-01 -3.786E-03 -7.825E-04 -1.537E-04  2.930E+02  2.930E+02
  4.000E-03  4.250E-01 -3.651E-03 -7.771E-04 -1.823E-04  2.930E+02  2.931E+02
  4.000E-03  4.335E-01 -3.491E-03 -7.704E-04 -2.165E-04  2.930E+02  2.932E+02
  4.000E-03  4.419E-01 -3.301E-03 -7.622E-04 -2.576E-04  2.930E+02  2.934E+02
  4.000E-03  4.503E-01 -3.074E-03 -7.519E-04 -3.070E-04  2.930E+02  2.941E+02
  4.000E-03  4.587E-01 -2.804E-03 -7.386E-04 -3.688E-04  2.930E+02  2.957E+02
  4.000E-03  4.671E-01 -2.477E-03 -7.208E-04 -4.381E-04  2.930E+02  2.996E+02
  4.000E-03  4.755E-01 -2.096E-03 -6.977E-04 -5.570E-04  2.930E+02  3.087E+02
  4.000E-03  4.840E-01 -1.573E-03 -6.553E-04 -5.756E-04  2.930E+02  3.288E+02
  4.000E-03  4.924E-01 -1.179E-03 -6.332E-04 -1.097E-03  2.930E+02  3.695E+02
  4.000E-03  5.008E-01  2.387E-04 -4.712E-04 -6.282E-04  2.954E+02  4.478E+02
  4.000E-03  5.050E-01  0.000E+00  0.000E+00 -6.282E-04  2.930E+02  2.930E+02
  1.200E-02  0.000E+00 -4.267E-03 -5.028E-04  0.000E+00  2.930E+02  2.930E+02
  1.200E-02  4.208E-03 -4.267E-03 -5.028E-04 -4.480E-08  2.930E+02  2.930E+02
  1.200E-02  1.262E-02 -4.267E-03 -5.032E-04  1.982E-07  2.930E+02  2.930E+02
  1.200E-02  2.104E-02 -4.267E-03 -5.033E-04  1.357E-07  2.930E+02  2.930E+02
  1.200E-02  2.946E-02 -4.267E-03 -5.034E-04  1.158E-07  2.930E+02  2.930E+02
  1.200E-02  3.787E-02 -4.267E-03 -5.034E-04  7.242E-08  2.930E+02  2.930E+02
  1.200E-02  4.629E-02 -4.267E-03 -5.034E-04  3.351E-08  2.930E+02  2.931E+02
  1.200E-02  5.471E-02 -4.267E-03 -5.034E-04 -5.881E-09  2.930E+02  2.932E+02
  1.200E-02  6.313E-02 -4.267E-03 -5.034E-04 -4.471E-08  2.930E+02  2.935E+02
  1.200E-02  7.154E-02 -4.267E-03 -5.034E-04 -8.440E-08  2.930E+02  2.942E+02
  1.200E-02  7.996E-02 -4.267E-03 -5.034E-04 -1.258E-07  2.930E+02  2.961E+02
  1.200E-02  8.838E-02 -4.267E-03 -5.034E-04 -1.704E-07  2.930E+02  3.006E+02
  1.200E-02  9.679E-02 -4.267E-03 -5.034E-04 -2.198E-07  2.930E+02  3.109E+02
  1.200E-02  1.052E-01 -4.267E-03 -5.034E-04 -2.753E-07  2.930E+02  3.334E+02
  1.200E-02  1.136E-01 -4.267E-03 -5.034E-04 -3.384E-07  2.930E+02  3.109E+02
  1.200E-02  1.220E-01 -4.266E-03 -5.034E-04 -4.110E-07  2.930E+02  3.006E+02
  1.200E-02  1.305E-01 -4.266E-03 -5.034E-04 -4.952E-07  2.930E+02  2.961E+02
  1.200E-02  1.389E-01 -4.266E-03 -5.033E-04 -5.932E-07  2.930E+02  2.942E+02
  1.200E-02  1.473E-01 -4.265E-03 -5.033E-04 -7.080E-07  2.930E+02  2.935E+02
  1.200E-02  1.557E-01 -4.264E-03 -5.033E-04 -8.428E-07  2.930E+02  2.932E+02
  1.200E-02  1.641E-01 -4.264E-03 -5.033E-04 -1.001E-06  2.930E+02  2.931E+02
  1.200E-02  1.725E-01 -4.263E-03 -5.032E-04 -1.188E-06  2.930E+02  2.930E+02
  1.200E-02  1.810E-01 -4.262E-03 -5.032E-04 -1.408E-06  2.930E+02  2.930E+02
  1.200E-02  1.894E-01 -4.261E-03 -5.031E-04 -1.667E-06  2.930E+02  2.930E+02
  1.200E-02  1.978E-01 -4.259E-03 -5.030E-04 -1.974E-06  2.930E+02  2.930E+02
  1.200E-02  2.062E-01 -4.257E-03 -5.030E-04 -2.336E-06  2.930E+02  2.930E+02
  1.200E-02  2.146E-01 -4.255E-03 -5.029E-04 -2.763E-06  2.930E+02  2.930E+02
  1.200E-02  2.230E-01 -4.253E-03 -5.028E-04 -3.269E-06  2.930E+02  2.930E+02
  1.200E-02  2.315E-01 -4.250E-03 -5.026E-04 -3.866E-06  2.930E+02  2.930E+02
  1.200E-02  2.399E-01 -4.247E-03 -5.025E-04 -4.572E-06  2.930E+02  2.930E+02
  1.200E-02  2.483E-01 -4.243E-03 -5.023E-04 -5.406E-06  2.930E+02  2.930E+02
  1.200E-02  2.567E-01 -4.239E-03 -5.021E-04 -6.392E-06  2.930E+02  2.930E+02
  1.200E-02  2.651E-01 -4.233E-03 -5.018E-04 -7.558E-06  2.930E+02  2.930E+02
  1.200E-02  2.735E-01 -4.227E-03 -5.015E-04 -8.937E-06  2.930E+02  2.930E+02
  1.200E-02  2.820E-01 -4.219E-03 -5.012E-04 -1.057E-05  2.930E+02  2.930E+02
  1.200E-02  2.904E-01 -4.210E-03 -5.008E-04 -1.249E-05  2.930E+02  2.930E+02
  1.200E-02  2.988E-01 -4.199E-03 -5.003E-04 -1.477E-05  2.930E+02  2.930E+02
  1.200E-02  3.072E-01 -4.187E-03 -4.997E-04 -1.746E-05  2.930E+02  2.930E+02
  1.200E-02  3.156E-01 -4.172E-03 -4.990E-04 -2.065E-05  2.930E+02  2.930E+02
  1.200E-02  3.240E-01 -4.154E-03 -4.982E-04 -2.441E-05  2.930E+02  2.930E+02
  1.200E-02  3.325E-01 -4.133E-03 -4.972E-04 -2.886E-05  2.930E+02  2.930E+02
  1.200E-02  3.409E-01 -4.109E-03 -4.961E-04 -3.413E-05  2.930E+02  2.930E+02
  1.200E-02  3.493E-01 -4.080E-03 -4.947E-04 -4.035E-05  2.930E+02  2.930E+02
  1.200E-02  3.577E-01 -4.045E-03 -4.931E-04 -4.771E-05  2.930E+02  2.930E+02
  1.200E-02  3.661E-01 -4.004E-03 -4.912E-04 -5.642E-05  2.930E+02  2.930E+02
  1.200E-02  3.745E-01 -3.956E-03 -4.890E-04 -6.673E-05  2.930E+02  2.930E+02
  1.200E-02  3.830E-01 -3.899E-03 -4.863E-04 -7.893E-05  2.930E+02  2.930E+02
  1.200E-02  3.914E-01 -3.832E-03 -4.831E-04 -9.338E-05  2.930E+02  2.930E+02
  1.200E-02  3.998E-01 -3.752E-03 -4.793E-04 -1.105E-04  2.930E+02  2.930E+02
  1.200E-02  4.082E-01 -3.658E-03 -4.748E-04 -1.308E-04  2.930E+02  2.930E+02
  1.200E-02  4.166E-01 -3.546E-03 -4.693E-04 -1.550E-04  2.930E+02  2.930E+02
  1.200E-02  4.250E-01 -3.413E-03 -4.628E-04 -1.837E-04  2.930E+02  2.931E+02
  1.200E-02  4.335E-01 -3.256E-03 -4.547E-04 -2.180E-04  2.930E+02  2.932E+02
  1.200E-02  4.419E-01 -3.070E-03 -4.448E-04 -2.592E-04  2.930E+02  2.934E+02
  1.200E-02  4.503E-01 -2.848E-03 -4.323E-04 -3.085E-04  2.930E+02  2.941E+02
  1.200E-02  4.587E-01 -2.584E-03 -4.163E-04 -3.699E-04  2.930E+02  2.958E+02
  1.200E-02  4.671E-01 -2.265E-03 -3.951E-04 -4.387E-04  2.930E+02  2.998E+02
  1.200E-02  4.755E-01 -1.893E-03 -3.676E-04 -5.521E-04  2.930E+02  3.091E+02
  1.200E-02  4.840E-01 -1.392E-03 -3.175E-04 -5.905E-04  2.930E+02  3.297E+02
  1.200E-02  4.924E-01 -9.759E-04 -2.987E-04 -1.008E-03  2.930E+02  3.716E+02
  1.200E-02  5.008E-01  2.356E-04 -3.035E-05 -5.239E-04  2.954E+02  4.495E+02
  1.200E-02  5.050E-01  0.000E+00  0.000E+00 -5.239E-04  2.930E+02  2.930E+02
  2.000E-02  0.000E+00 -3.707E-03 -6.534E-04  0.000E+00  2.930E+02  2.930E+02
  2.000E-02  4.208E-03 -3.707E-03 -6.534E-04  5.572E-08  2.930E+02  2.930E+02
  2.000E-02  1.262E-02 -3.707E-03 -6.535E-04  2.191E-07  2.930E+02  2.930E+02
  2.000E-02  2.104E-02 -3.707E-03 -6.535E-04  1.282E-07  2.930E+02  2.930E+02
  2.000E-02  2.946E-02 -3.707E-03 -6.535E-04  9.660E-08  2.930E+02  2.930E+02
  2.000E-02  3.787E-02 -3.708E-03 -6.536E-04  5.800E-08  2.930E+02  2.930E+02
  2.000E-02  4.629E-02 -3.708E-03 -6.536E-04  2.361E-08  2.930E+02  2.931E+02
  2.000E-02  5.471E-02 -3.708E-03 -6.536E-04 -1.117E-08  2.930E+02  2.932E+02
  2.000E-02  6.313E-02 -3.708E-03 -6.536E-04 -4.623E-08  2.930E+02  2.935E+02
  2.000E-02  7.154E-02 -3.708E-03 -6.536E-04 -8.263E-08  2.930E+02  2.942E+02
  2.000E-02  7.996E-02 -3.707E-03 -6.536E-04 -1.213E-07  2.930E+02  2.961E+02
  2.000E-02  8.838E-02 -3.707E-03 -6.536E-04 -1.634E-07  2.930E+02  3.006E+02
  2.000E-02  9.679E-02 -3.707E-03 -6.536E-04 -2.101E-07  2.930E+02  3.109E+02
  2.000E-02  1.052E-01 -3.707E-03 -6.535E-04 -2.628E-07  2.930E+02  3.334E+02
  2.000E-02  1.136E-01 -3.707E-03 -6.535E-04 -3.228E-07  2.930E+02  3.109E+02
  2.000E-02  1.220E-01 -3.706E-03 -6.535E-04 -3.919E-07  2.930E+02  3.006E+02
  2.000E-02  1.305E-01 -3.706E-03 -6.535E-04 -4.720E-07  2.930E+02  2.961E+02
  2.000E-02  1.389E-01 -3.706E-03 -6.534E-04 -5.656E-07  2.930E+02  2.942E+02
  2.000E-02  1.473E-01 -3.705E-03 -6.534E-04 -6.750E-07  2.930E+02  2.935E+02
  2.000E-02  1.557E-01 -3.705E-03 -6.533E-04 -8.033E-07  2.930E+02  2.932E+02
  2.000E-02  1.641E-01 -3.704E-03 -6.533E-04 -9.543E-07  2.930E+02  2.931E+02
  2.000E-02  1.725E-01 -3.703E-03 -6.532E-04 -1.132E-06  2.930E+02  2.930E+02
  2.000E-02  1.810E-01 -3.702E-03 -6.531E-04 -1.342E-06  2.930E+02  2.930E+02
  2.000E-02  1.894E-01 -3.701E-03 -6.530E-04 -1.589E-06  2.930E+02  2.930E+02
  2.000E-02  1.978E-01 -3.700E-03 -6.529E-04 -1.881E-06  2.930E+02  2.930E+02
  2.000E-02  2.062E-01 -3.698E-03 -6.528E-04 -2.226E-06  2.930E+02  2.930E+02
  2.000E-02  2.146E-01 -3.696E-03 -6.526E-04 -2.634E-06  2.930E+02  2.930E+02
  2.000E-02  2.230E-01 -3.694E-03 -6.524E-04 -3.115E-06  2.930E+02  2.930E+02
  2.000E-02  2.315E-01 -3.691E-03 -6.521E-04 -3.685E-06  2.930E+02  2.930E+02
  2.000E-02  2.399E-01 -3.688E-03 -6.519E-04 -4.357E-06  2.930E+02  2.930E+02
  2.000E-02  2.483E-01 -3.685E-03 -6.515E-04 -5.152E-06  2.930E+02  2.930E+02
  2.000E-02  2.567E-01 -3.680E-03 -6.512E-04 -6.092E-06  2.930E+02  2.930E+02
  2.000E-02  2.651E-01 -3.675E-03 -6.507E-04 -7.204E-06  2.930E+02  2.930E+02
  2.000E-02  2.735E-01 -3.669E-03 -6.501E-04 -8.517E-06  2.930E+02  2.930E+02
  2.000E-02  2.820E-01 -3.662E-03 -6.495E-04 -1.007E-05  2.930E+02  2.930E+02
  2.000E-02  2.904E-01 -3.653E-03 -6.487E-04 -1.191E-05  2.930E+02  2.930E+02
  2.000E-02  2.988E-01 -3.643E-03 -6.478E-04 -1.408E-05  2.930E+02  2.930E+02
  2.000E-02  3.072E-01 -3.631E-03 -6.468E-04 -1.664E-05  2.930E+02  2.930E+02
  2.000E-02  3.156E-01 -3.617E-03 -6.455E-04 -1.968E-05  2.930E+02  2.930E+02
  2.000E-02  3.240E-01 -3.600E-03 -6.440E-04 -2.327E-05  2.930E+02  2.930E+02
  2.000E-02  3.325E-01 -3.580E-03 -6.423E-04 -2.751E-05  2.930E+02  2.930E+02
  2.000E-02  3.409E-01 -3.557E-03 -6.402E-04 -3.252E-05  2.930E+02  2.930E+02
  2.000E-02  3.493E-01 -3.529E-03 -6.377E-04 -3.845E-05  2.930E+02  2.930E+02
  2.000E-02  3.577E-01 -3.497E-03 -6.348E-04 -4.546E-05  2.930E+02  2.930E+02
  2.000E-02  3.661E-01 -3.458E-03 -6.313E-04 -5.376E-05  2.930E+02  2.930E+02
  2.000E-02  3.745E-01 -3.413E-03 -6.272E-04 -6.356E-05  2.930E+02  2.930E+02
  2.000E-02  3.830E-01 -3.359E-03 -6.223E-04 -7.517E-05  2.930E+02  2.930E+02
  2.000E-02  3.914E-01 -3.295E-03 -6.165E-04 -8.889E-05  2.930E+02  2.930E+02
  2.000E-02  3.998E-01 -3.219E-03 -6.096E-04 -1.051E-04  2.930E+02  2.930E+02
  2.000E-02  4.082E-01 -3.130E-03 -6.014E-04 -1.244E-04  2.930E+02  2.930E+02
  2.000E-02  4.166E-01 -3.024E-03 -5.915E-04 -1.472E-04  2.930E+02  2.930E+02
  2.000E-02  4.250E-01 -2.899E-03 -5.796E-04 -1.742E-04  2.930E+02  2.931E+02
  2.000E-02  4.335E-01 -2.751E-03 -5.651E-04 -2.064E-04  2.930E+02  2.932E+02
  2.000E-02  4.419E-01 -2.576E-03 -5.473E-04 -2.446E-04  2.930E+02  2.934E+02
  2.000E-02  4.503E-01 -2.368E-03 -5.251E-04 -2.899E-04  2.930E+02  2.941E+02
  2.000E-02  4.587E-01 -2.122E-03 -4.969E-04 -3.454E-04  2.930E+02  2.958E+02
  2.000E-02  4.671E-01 -1.827E-03 -4.599E-04 -4.061E-04  2.930E+02  2.999E+02
  2.000E-02  4.755E-01 -1.486E-03 -4.122E-04 -5.009E-04  2.930E+02  3.093E+02
  2.000E-02  4.840E-01 -1.040E-03 -3.345E-04 -5.311E-04  2.930E+02  3.299E+02
  2.000E-02  4.924E-01 -6.662E-04 -2.667E-04 -8.494E-04  2.930E+02  3.719E+02
  2.000E-02  5.008E-01  3.269E-04 -3.514E-06 -2.758E-04  2.954E+02  4.491E+02
  2.000E-02  5.050E-01  0.000E+00  0.000E+00 -2.758E-04  2.930E+02  2.930E+02
  2.800E-02  0.000E+00 -3.211E-03 -6.216E-04  0.000E+00  2.930E+02  2.930E+02
  2.800E-02  4.208E-03 -3.211E-03 -6.216E-04 -7.790E-09  2.930E+02  2.930E+02
  2.800E-02  1.262E-02 -3.211E-03 -6.217E-04  8.923E-08  2.930E+02  2.930E+02
  2.800E-02  2.104E-02 -3.211E-03 -6.218E-04  7.667E-08  2.930E+02  2.930E+02
  2.800E-02  2.946E-02 -3.211E-03 -6.218E-04  6.343E-08  2.930E+02  2.930E+02
  2.800E-02  3.787E-02 -3.211E-03 -6.218E-04  3.915E-08  2.930E+02  2.930E+02
  2.800E-02  4.629E-02 -3.211E-03 -6.218E-04  1.277E-08  2.930E+02  2.931E+02
  2.800E-02  5.471E-02 -3.211E-03 -6.219E-04 -1.587E-08  2.930E+02  2.932E+02
  2.800E-02  6.313E-02 -3.211E-03 -6.219E-04 -4.612E-08  2.930E+02  2.935E+02
  2.800E-02  7.154E-02 -3.211E-03 -6.218E-04 -7.843E-08  2.930E+02  2.942E+02
  2.800E-02  7.996E-02 -3.211E-03 -6.218E-04 -1.134E-07  2.930E+02  2.961E+02
  2.800E-02  8.838E-02 -3.211E-03 -6.218E-04 -1.517E-07  2.930E+02  3.006E+02
  2.800E-02  9.679E-02 -3.211E-03 -6.218E-04 -1.945E-07  2.930E+02  3.109E+02
  2.800E-02  1.052E-01 -3.210E-03 -6.218E-04 -2.429E-07  2.930E+02  3.334E+02
  2.800E-02  1.136E-01 -3.210E-03 -6.218E-04 -2.983E-07  2.930E+02  3.109E+02
  2.800E-02  1.220E-01 -3.210E-03 -6.217E-04 -3.619E-07  2.930E+02  3.006E+02
  2.800E-02  1.305E-01 -3.210E-03 -6.217E-04 -4.359E-07  2.930E+02  2.961E+02
  2.800E-02  1.389E-01 -3.209E-03 -6.216E-04 -5.222E-07  2.930E+02  2.942E+02
  2.800E-02  1.473E-01 -3.209E-03 -6.216E-04 -6.232E-07  2.930E+02  2.935E+02
  2.800E-02  1.557E-01 -3.208E-03 -6.215E-04 -7.417E-07  2.930E+02  2.932E+02
  2.800E-02  1.641E-01 -3.208E-03 -6.214E-04 -8.810E-07  2.930E+02  2.931E+02
  2.800E-02  1.725E-01 -3.207E-03 -6.213E-04 -1.045E-06  2.930E+02  2.930E+02
  2.800E-02  1.810E-01 -3.206E-03 -6.212E-04 -1.239E-06  2.930E+02  2.930E+02
  2.800E-02  1.894E-01 -3.205E-03 -6.211E-04 -1.467E-06  2.930E+02  2.930E+02
  2.800E-02  1.978E-01 -3.204E-03 -6.209E-04 -1.737E-06  2.930E+02  2.930E+02
  2.800E-02  2.062E-01 -3.202E-03 -6.207E-04 -2.055E-06  2.930E+02  2.930E+02
  2.800E-02  2.146E-01 -3.200E-03 -6.205E-04 -2.431E-06  2.930E+02  2.930E+02
  2.800E-02  2.230E-01 -3.198E-03 -6.202E-04 -2.876E-06  2.930E+02  2.930E+02
  2.800E-02  2.315E-01 -3.196E-03 -6.199E-04 -3.402E-06  2.930E+02  2.930E+02
  2.800E-02  2.399E-01 -3.193E-03 -6.195E-04 -4.023E-06  2.930E+02  2.930E+02
  2.800E-02  2.483E-01 -3.190E-03 -6.191E-04 -4.757E-06  2.930E+02  2.930E+02
  2.800E-02  2.567E-01 -3.186E-03 -6.185E-04 -5.625E-06  2.930E+02  2.930E+02
  2.800E-02  2.651E-01 -3.181E-03 -6.179E-04 -6.650E-06  2.930E+02  2.930E+02
  2.800E-02  2.735E-01 -3.175E-03 -6.172E-04 -7.863E-06  2.930E+02  2.930E+02
  2.800E-02  2.820E-01 -3.169E-03 -6.163E-04 -9.297E-06  2.930E+02  2.930E+02
  2.800E-02  2.904E-01 -3.161E-03 -6.152E-04 -1.099E-05  2.930E+02  2.930E+02
  2.800E-02  2.988E-01 -3.151E-03 -6.140E-04 -1.300E-05  2.930E+02  2.930E+02
  2.800E-02  3.072E-01 -3.140E-03 -6.126E-04 -1.537E-05  2.930E+02  2.930E+02
  2.800E-02  3.156E-01 -3.127E-03 -6.108E-04 -1.817E-05  2.930E+02  2.930E+02
  2.800E-02  3.240E-01 -3.112E-03 -6.088E-04 -2.148E-05  2.930E+02  2.930E+02
  2.800E-02  3.325E-01 -3.094E-03 -6.064E-04 -2.539E-05  2.930E+02  2.930E+02
  2.800E-02  3.409E-01 -3.072E-03 -6.036E-04 -3.002E-05  2.930E+02  2.930E+02
  2.800E-02  3.493E-01 -3.047E-03 -6.002E-04 -3.549E-05  2.930E+02  2.930E+02
  2.800E-02  3.577E-01 -3.017E-03 -5.962E-04 -4.196E-05  2.930E+02  2.930E+02
  2.800E-02  3.661E-01 -2.981E-03 -5.915E-04 -4.960E-05  2.930E+02  2.930E+02
  2.800E-02  3.745E-01 -2.939E-03 -5.859E-04 -5.863E-05  2.930E+02  2.930E+02
  2.800E-02  3.830E-01 -2.890E-03 -5.793E-04 -6.931E-05  2.930E+02  2.930E+02
  2.800E-02  3.914E-01 -2.831E-03 -5.714E-04 -8.193E-05  2.930E+02  2.930E+02
  2.800E-02  3.998E-01 -2.762E-03 -5.621E-04 -9.684E-05  2.930E+02  2.930E+02
  2.800E-02  4.082E-01 -2.680E-03 -5.509E-04 -1.145E-04  2.930E+02  2.930E+02
  2.800E-02  4.166E-01 -2.583E-03 -5.376E-04 -1.352E-04  2.930E+02  2.930E+02
  2.800E-02  4.250E-01 -2.468E-03 -5.216E-04 -1.598E-04  2.930E+02  2.931E+02
  2.800E-02  4.335E-01 -2.333E-03 -5.023E-04 -1.887E-04  2.930E+02  2.932E+02
  2.800E-02  4.419E-01 -2.173E-03 -4.787E-04 -2.229E-04  2.930E+02  2.934E+02
  2.800E-02  4.503E-01 -1.985E-03 -4.498E-04 -2.627E-04  2.930E+02  2.941E+02
  2.800E-02  4.587E-01 -1.763E-03 -4.137E-04 -3.104E-04  2.930E+02  2.958E+02
  2.800E-02  4.671E-01 -1.500E-03 -3.676E-04 -3.612E-04  2.930E+02  2.998E+02
  2.800E-02  4.755E-01 -1.199E-03 -3.102E-04 -4.366E-04  2.930E+02  3.090E+02
  2.800E-02  4.840E-01 -8.161E-04 -2.247E-04 -4.564E-04  2.930E+02  3.294E+02
  2.800E-02  4.924E-01 -4.968E-04 -1.470E-04 -6.958E-04  2.930E+02  3.709E+02
  2.800E-02  5.008E-01  2.992E-04  8.370E-05 -1.764E-04  2.954E+02  4.476E+02
  2.800E-02  5.050E-01  0.000E+00  0.000E+00 -1.764E-04  2.930E+02  2.930E+02
  3.600E-02  0.000E+00 -2.704E-03 -6.265E-04  0.000E+00  2.930E+02  2.930E+02
  3.600E-02  4.208E-03 -2.704E-03 -6.265E-04 -5.938E-09  2.930E+02  2.930E+02
  3.600E-02  1.262E-02 -2.704E-03 -6.265E-04  5.679E-08  2.930E+02  2.930E+02
  3.600E-02  2.104E-02 -2.704E-03 -6.266E-04  4.970E-08  2.930E+02  2.930E+02
  3.600E-02  2.946E-02 -2.704E-03 -6.266E-04  4.177E-08  2.930E+02  2.930E+02
  3.600E-02  3.787E-02 -2.704E-03 -6.266E-04  2.493E-08  2.930E+02  2.930E+02
  3.600E-02  4.629E-02 -2.704E-03 -6.266E-04  4.701E-09  2.930E+02  2.931E+02
  3.600E-02  5.471E-02 -2.704E-03 -6.266E-04 -1.842E-08  2.930E+02  2.932E+02
  3.600E-02  6.313E-02 -2.704E-03 -6.266E-04 -4.378E-08  2.930E+02  2.935E+02
  3.600E-02  7.154E-02 -2.704E-03 -6.266E-04 -7.148E-08  2.930E+02  2.942E+02
  3.600E-02  7.996E-02 -2.704E-03 -6.266E-04 -1.019E-07  2.930E+02  2.961E+02
  3.600E-02  8.838E-02 -2.704E-03 -6.266E-04 -1.356E-07  2.930E+02  3.006E+02
  3.600E-02  9.679E-02 -2.704E-03 -6.266E-04 -1.734E-07  2.930E+02  3.109E+02
  3.600E-02  1.052E-01 -2.704E-03 -6.265E-04 -2.164E-07  2.930E+02  3.334E+02
  3.600E-02  1.136E-01 -2.704E-03 -6.265E-04 -2.655E-07  2.930E+02  3.109E+02
  3.600E-02  1.220E-01 -2.703E-03 -6.265E-04 -3.222E-07  2.930E+02  3.006E+02
  3.600E-02  1.305E-01 -2.703E-03 -6.264E-04 -3.879E-07  2.930E+02  2.961E+02
  3.600E-02  1.389E-01 -2.703E-03 -6.263E-04 -4.647E-07  2.930E+02  2.942E+02
  3.600E-02  1.473E-01 -2.702E-03 -6.263E-04 -5.545E-07  2.930E+02  2.935E+02
  3.600E-02  1.557E-01 -2.702E-03 -6.262E-04 -6.599E-07  2.930E+02  2.932E+02
  3.600E-02  1.641E-01 -2.701E-03 -6.261E-04 -7.839E-07  2.930E+02  2.931E+02
  3.600E-02  1.725E-01 -2.701E-03 -6.260E-04 -9.301E-07  2.930E+02  2.930E+02
  3.600E-02  1.810E-01 -2.700E-03 -6.258E-04 -1.102E-06  2.930E+02  2.930E+02
  3.600E-02  1.894E-01 -2.699E-03 -6.256E-04 -1.306E-06  2.930E+02  2.930E+02
  3.600E-02  1.978E-01 -2.698E-03 -6.254E-04 -1.546E-06  2.930E+02  2.930E+02
  3.600E-02  2.062E-01 -2.697E-03 -6.252E-04 -1.829E-06  2.930E+02  2.930E+02
  3.600E-02  2.146E-01 -2.695E-03 -6.249E-04 -2.164E-06  2.930E+02  2.930E+02
  3.600E-02  2.230E-01 -2.693E-03 -6.246E-04 -2.559E-06  2.930E+02  2.930E+02
  3.600E-02  2.315E-01 -2.691E-03 -6.242E-04 -3.027E-06  2.930E+02  2.930E+02
  3.600E-02  2.399E-01 -2.689E-03 -6.237E-04 -3.580E-06  2.930E+02  2.930E+02
  3.600E-02  2.483E-01 -2.685E-03 -6.231E-04 -4.233E-06  2.930E+02  2.930E+02
  3.600E-02  2.567E-01 -2.682E-03 -6.225E-04 -5.005E-06  2.930E+02  2.930E+02
  3.600E-02  2.651E-01 -2.678E-03 -6.217E-04 -5.918E-06  2.930E+02  2.930E+02
  3.600E-02  2.735E-01 -2.673E-03 -6.208E-04 -6.997E-06  2.930E+02  2.930E+02
  3.600E-02  2.820E-01 -2.667E-03 -6.197E-04 -8.273E-06  2.930E+02  2.930E+02
  3.600E-02  2.904E-01 -2.660E-03 -6.184E-04 -9.782E-06  2.930E+02  2.930E+02
  3.600E-02  2.988E-01 -2.651E-03 -6.168E-04 -1.156E-05  2.930E+02  2.930E+02
  3.600E-02  3.072E-01 -2.642E-03 -6.150E-04 -1.367E-05  2.930E+02  2.930E+02
  3.600E-02  3.156E-01 -2.630E-03 -6.129E-04 -1.617E-05  2.930E+02  2.930E+02
  3.600E-02  3.240E-01 -2.616E-03 -6.103E-04 -1.911E-05  2.930E+02  2.930E+02
  3.600E-02  3.325E-01 -2.600E-03 -6.073E-04 -2.259E-05  2.930E+02  2.930E+02
  3.600E-02  3.409E-01 -2.581E-03 -6.038E-04 -2.671E-05  2.930E+02  2.930E+02
  3.600E-02  3.493E-01 -2.559E-03 -5.996E-04 -3.157E-05  2.930E+02  2.930E+02
  3.600E-02  3.577E-01 -2.532E-03 -5.946E-04 -3.732E-05  2.930E+02  2.930E+02
  3.600E-02  3.661E-01 -2.500E-03 -5.888E-04 -4.411E-05  2.930E+02  2.930E+02
  3.600E-02  3.745E-01 -2.463E-03 -5.818E-04 -5.213E-05  2.930E+02  2.930E+02
  3.600E-02  3.830E-01 -2.419E-03 -5.736E-04 -6.160E-05  2.930E+02  2.930E+02
  3.600E-02  3.914E-01 -2.367E-03 -5.638E-04 -7.277E-05  2.930E+02  2.930E+02
  3.600E-02  3.998E-01 -2.306E-03 -5.522E-04 -8.594E-05  2.930E+02  2.930E+02
  3.600E-02  4.082E-01 -2.233E-03 -5.385E-04 -1.015E-04  2.930E+02  2.930E+02
  3.600E-02  4.166E-01 -2.147E-03 -5.221E-04 -1.197E-04  2.930E+02  2.930E+02
  3.600E-02  4.250E-01 -2.046E-03 -5.025E-04 -1.411E-04  2.930E+02  2.931E+02
  3.600E-02  4.335E-01 -1.927E-03 -4.790E-04 -1.662E-04  2.930E+02  2.932E+02
  3.600E-02  4.419E-01 -1.787E-03 -4.507E-04 -1.954E-04  2.930E+02  2.934E+02
  3.600E-02  4.503E-01 -1.623E-03 -4.164E-04 -2.289E-04  2.930E+02  2.941E+02
  3.600E-02  4.587E-01 -1.430E-03 -3.746E-04 -2.682E-04  2.930E+02  2.957E+02
  3.600E-02  4.671E-01 -1.204E-03 -3.226E-04 -3.088E-04  2.930E+02  2.996E+02
  3.600E-02  4.755E-01 -9.499E-04 -2.600E-04 -3.664E-04  2.930E+02  3.086E+02
  3.600E-02  4.840E-01 -6.323E-04 -1.734E-04 -3.773E-04  2.930E+02  3.285E+02
  3.600E-02  4.924E-01 -3.703E-04 -9.570E-05 -5.560E-04  2.930E+02  3.694E+02
  3.600E-02  5.008E-01  2.559E-04  1.033E-04 -1.146E-04  2.954E+02  4.458E+02
  3.600E-02  5.050E-01  0.000E+00  0.000E+00 -1.146E-04  2.930E+02  2.930E+02
  4.400E-02  0.000E+00 -2.199E-03 -6.257E-04  0.000E+00  2.930E+02  2.930E+02
  4.400E-02  4.208E-03 -2.199E-03 -6.257E-04 -8.891E-09  2.930E+02  2.930E+02
  4.400E-02  1.262E-02 -2.199E-03 -6.257E-04  3.130E-08  2.930E+02  2.930E+02
  4.400E-02  2.104E-02 -2.199E-03 -6.257E-04  2.986E-08  2.930E+02  2.930E+02
  4.400E-02  2.946E-02 -2.199E-03 -6.257E-04  2.565E-08  2.930E+02  2.930E+02
  4.400E-02  3.787E-02 -2.199E-03 -6.257E-04  1.437E-08  2.930E+02  2.930E+02
  4.400E-02  4.629E-02 -2.199E-03 -6.257E-04 -6.693E-10  2.930E+02  2.931E+02
  4.400E-02  5.471E-02 -2.199E-03 -6.257E-04 -1.871E-08  2.930E+02  2.932E+02
  4.400E-02  6.313E-02 -2.199E-03 -6.257E-04 -3.917E-08  2.930E+02  2.935E+02
  4.400E-02  7.154E-02 -2.199E-03 -6.257E-04 -6.197E-08  2.930E+02  2.942E+02
  4.400E-02  7.996E-02 -2.199E-03 -6.257E-04 -8.732E-08  2.930E+02  2.961E+02