VARIABLES="XP","YP","P","U","V","TS","TF"
ZONE T="Zone 001"I=    82 J=    22 F=POINT
  0.000E+00  0.000E+00  4.298E-02  0.000E+00  0.000E+00  7.230E-01  7.435E-01
  0.000E+00  3.156E-03  4.298E-02  0.000E+00  0.000E+00  7.230E-01  7.435E-01
  0.000E+00  9.469E-03  4.227E-02  0.000E+00  0.000E+00  7.386E-01  7.437E-01
  0.000E+00  1.578E-02  4.173E-02  0.000E+00  0.000E+00  7.712E-01  7.444E-01
  0.000E+00  2.209E-02  4.123E-02  0.000E+00  0.000E+00  8.236E-01  7.458E-01
  0.000E+00  2.841E-02  4.070E-02  0.000E+00  0.000E+00  8.995E-01  7.482E-01
  0.000E+00  3.472E-02  4.015E-02  0.000E+00  0.000E+00  1.003E+00  7.519E-01
  0.000E+00  4.103E-02  3.961E-02  0.000E+00  0.000E+00  1.139E+00  7.574E-01
  0.000E+00  4.734E-02  3.906E-02  0.000E+00  0.000E+00  1.309E+00  7.650E-01
  0.000E+00  5.366E-02  3.851E-02  0.000E+00  0.000E+00  1.516E+00  7.752E-01
  0.000E+00  5.997E-02  3.796E-02  0.000E+00  0.000E+00  1.755E+00  7.884E-01
  0.000E+00  6.628E-02  3.741E-02  0.000E+00  0.000E+00  2.019E+00  8.048E-01
  0.000E+00  7.259E-02  3.686E-02  0.000E+00  0.000E+00  2.296E+00  8.246E-01
  0.000E+00  7.891E-02  3.631E-02  0.000E+00  0.000E+00  2.569E+00  8.475E-01
  0.000E+00  8.522E-02  3.576E-02  0.000E+00  0.000E+00  2.817E+00  8.731E-01
  0.000E+00  9.153E-02  3.521E-02  0.000E+00  0.000E+00  3.018E+00  9.008E-01
  0.000E+00  9.784E-02  3.467E-02  0.000E+00  0.000E+00  3.155E+00  9.297E-01
  0.000E+00  1.042E-01  3.412E-02  0.000E+00  0.000E+00  3.212E+00  9.587E-01
  0.000E+00  1.105E-01  3.357E-02  0.000E+00  0.000E+00  3.186E+00  9.868E-01
  0.000E+00  1.168E-01  3.302E-02  0.000E+00  0.000E+00  3.079E+00  1.013E+00
  0.000E+00  1.231E-01  3.248E-02  0.000E+00  0.000E+00  2.905E+00  1.036E+00
  0.000E+00  1.294E-01  3.193E-02  0.000E+00  0.000E+00  2.681E+00  1.056E+00
  0.000E+00  1.357E-01  3.138E-02  0.000E+00  0.000E+00  2.427E+00  1.073E+00
  0.000E+00  1.420E-01  3.084E-02  0.000E+00  0.000E+00  2.164E+00  1.086E+00
  0.000E+00  1.483E-01  3.029E-02  0.000E+00  0.000E+00  1.910E+00  1.095E+00
  0.000E+00  1.547E-01  2.975E-02  0.000E+00  0.000E+00  1.677E+00  1.102E+00
  0.000E+00  1.610E-01  2.921E-02  0.000E+00  0.000E+00  1.473E+00  1.105E+00
  0.000E+00  1.673E-01  2.866E-02  0.000E+00  0.000E+00  1.302E+00  1.107E+00
  0.000E+00  1.736E-01  2.812E-02  0.000E+00  0.000E+00  1.163E+00  1.107E+00
  0.000E+00  1.799E-01  2.758E-02  0.000E+00  0.000E+00  1.054E+00  1.106E+00
  0.000E+00  1.862E-01  2.704E-02  0.000E+00  0.000E+00  9.704E-01  1.104E+00
  0.000E+00  1.925E-01  2.649E-02  0.000E+00  0.000E+00  9.076E-01  1.101E+00
  0.000E+00  1.988E-01  2.595E-02  0.000E+00  0.000E+00  8.614E-01  1.098E+00
  0.000E+00  2.052E-01  2.541E-02  0.000E+00  0.000E+00  8.278E-01  1.094E+00
  0.000E+00  2.115E-01  2.487E-02  0.000E+00  0.000E+00  8.035E-01  1.090E+00
  0.000E+00  2.178E-01  2.433E-02  0.000E+00  0.000E+00  7.859E-01  1.086E+00
  0.000E+00  2.241E-01  2.379E-02  0.000E+00  0.000E+00  7.731E-01  1.082E+00
  0.000E+00  2.304E-01  2.325E-02  0.000E+00  0.000E+00  7.634E-01  1.078E+00
  0.000E+00  2.367E-01  2.271E-02  0.000E+00  0.000E+00  7.559E-01  1.074E+00
  0.000E+00  2.430E-01  2.218E-02  0.000E+00  0.000E+00  7.498E-01  1.070E+00
  0.000E+00  2.493E-01  2.164E-02  0.000E+00  0.000E+00  7.446E-01  1.066E+00
  0.000E+00  2.557E-01  2.110E-02  0.000E+00  0.000E+00  7.400E-01  1.062E+00
  0.000E+00  2.620E-01  2.056E-02  0.000E+00  0.000E+00  7.358E-01  1.058E+00
  0.000E+00  2.683E-01  2.003E-02  0.000E+00  0.000E+00  7.317E-01  1.054E+00
  0.000E+00  2.746E-01  1.949E-02  0.000E+00  0.000E+00  7.278E-01  1.051E+00
  0.000E+00  2.809E-01  1.895E-02  0.000E+00  0.000E+00  7.240E-01  1.047E+00
  0.000E+00  2.872E-01  1.842E-02  0.000E+00  0.000E+00  7.202E-01  1.043E+00
  0.000E+00  2.935E-01  1.788E-02  0.000E+00  0.000E+00  7.164E-01  1.039E+00
  0.000E+00  2.998E-01  1.734E-02  0.000E+00  0.000E+00  7.127E-01  1.035E+00
  0.000E+00  3.062E-01  1.681E-02  0.000E+00  0.000E+00  7.089E-01  1.031E+00
  0.000E+00  3.125E-01  1.627E-02  0.000E+00  0.000E+00  7.052E-01  1.028E+00
  0.000E+00  3.188E-01  1.574E-02  0.000E+00  0.000E+00  7.015E-01  1.024E+00
  0.000E+00  3.251E-01  1.520E-02  0.000E+00  0.000E+00  6.978E-01  1.020E+00
  0.000E+00  3.314E-01  1.467E-02  0.000E+00  0.000E+00  6.941E-01  1.016E+00
  0.000E+00  3.377E-01  1.413E-02  0.000E+00  0.000E+00  6.904E-01  1.012E+00
  0.000E+00  3.440E-01  1.360E-02  0.000E+00  0.000E+00  6.867E-01  1.009E+00
  0.000E+00  3.503E-01  1.306E-02  0.000E+00  0.000E+00  6.830E-01  1.005E+00
  0.000E+00  3.567E-01  1.253E-02  0.000E+00  0.000E+00  6.793E-01  1.001E+00
  0.000E+00  3.630E-01  1.200E-02  0.000E+00  0.000E+00  6.757E-01  9.975E-01
  0.000E+00  3.693E-01  1.146E-02  0.000E+00  0.000E+00  6.720E-01  9.938E-01
  0.000E+00  3.756E-01  1.093E-02  0.000E+00  0.000E+00  6.684E-01  9.901E-01
  0.000E+00  3.819E-01  1.039E-02  0.000E+00  0.000E+00  6.648E-01  9.864E-01
  0.000E+00  3.882E-01  9.860E-03  0.000E+00  0.000E+00  6.612E-01  9.827E-01
  0.000E+00  3.945E-01  9.327E-03  0.000E+00  0.000E+00  6.577E-01  9.790E-01
  0.000E+00  4.008E-01  8.793E-03  0.000E+00  0.000E+00  6.541E-01  9.753E-01
  0.000E+00  4.072E-01  8.260E-03  0.000E+00  0.000E+00  6.506E-01  9.716E-01
  0.000E+00  4.135E-01  7.726E-03  0.000E+00  0.000E+00  6.471E-01  9.680E-01
  0.000E+00  4.198E-01  7.193E-03  0.000E+00  0.000E+00  6.436E-01  9.643E-01
  0.000E+00  4.261E-01  6.659E-03  0.000E+00  0.000E+00  6.402E-01  9.606E-01
  0.000E+00  4.324E-01  6.126E-03  0.000E+00  0.000E+00  6.368E-01  9.570E-01
  0.000E+00  4.387E-01  5.593E-03  0.000E+00  0.000E+00  6.335E-01  9.533E-01
  0.000E+00  4.450E-01  5.060E-03  0.000E+00  0.000E+00  6.303E-01  9.497E-01
  0.000E+00  4.513E-01  4.527E-03  0.000E+00  0.000E+00  6.272E-01  9.461E-01
  0.000E+00  4.577E-01  3.994E-03  0.000E+00  0.000E+00  6.242E-01  9.425E-01
  0.000E+00  4.640E-01  3.461E-03  0.000E+00  0.000E+00  6.214E-01  9.389E-01
  0.000E+00  4.703E-01  2.928E-03  0.000E+00  0.000E+00  6.189E-01  9.353E-01
  0.000E+00  4.766E-01  2.395E-03  0.000E+00  0.000E+00  6.166E-01  9.317E-01
  0.000E+00  4.829E-01  1.862E-03  0.000E+00  0.000E+00  6.146E-01  9.282E-01
  0.000E+00  4.892E-01  1.329E-03  0.000E+00  0.000E+00  6.130E-01  9.247E-01
  0.000E+00  4.955E-01  7.966E-04  0.000E+00  0.000E+00  6.119E-01  9.213E-01
  0.000E+00  5.018E-01  2.637E-04  0.000E+00  0.000E+00  6.113E-01  9.184E-01
  0.000E+00  5.050E-01  2.637E-04  0.000E+00  0.000E+00  6.113E-01  9.184E-01
  4.000E-03  0.000E+00  4.330E-02  1.341E-03  6.500E-02  7.230E-01  7.435E-01
  4.000E-03  3.156E-03  4.297E-02  1.341E-03  6.430E-02  7.230E-01  7.435E-01
  4.000E-03  9.469E-03  4.230E-02  1.201E-03  6.350E-02  7.386E-01  7.437E-01
  4.000E-03  1.578E-02  4.176E-02  1.083E-03  6.260E-02  7.712E-01  7.444E-01
  4.000E-03  2.209E-02  4.124E-02  1.013E-03  6.172E-02  8.236E-01  7.458E-01
  4.000E-03  2.841E-02  4.071E-02  9.621E-04  6.090E-02  8.995E-01  7.482E-01
  4.000E-03  3.472E-02  4.016E-02  9.153E-04  6.012E-02  1.003E+00  7.519E-01
  4.000E-03  4.103E-02  3.961E-02  8.704E-04  5.937E-02  1.139E+00  7.574E-01
  4.000E-03  4.734E-02  3.906E-02  8.281E-04  5.865E-02  1.309E+00  7.650E-01
  4.000E-03  5.366E-02  3.851E-02  7.882E-04  5.795E-02  1.516E+00  7.752E-01
  4.000E-03  5.997E-02  3.796E-02  7.503E-04  5.728E-02  1.755E+00  7.884E-01
  4.000E-03  6.628E-02  3.741E-02  7.139E-04  5.664E-02  2.019E+00  8.048E-01
  4.000E-03  7.259E-02  3.686E-02  6.790E-04  5.602E-02  2.296E+00  8.246E-01
  4.000E-03  7.891E-02  3.632E-02  6.454E-04  5.543E-02  2.569E+00  8.475E-01
  4.000E-03  8.522E-02  3.577E-02  6.131E-04  5.486E-02  2.817E+00  8.731E-01
  4.000E-03  9.153E-02  3.522E-02  5.821E-04  5.431E-02  3.018E+00  9.008E-01
  4.000E-03  9.784E-02  3.467E-02  5.523E-04  5.378E-02  3.155E+00  9.297E-01
  4.000E-03  1.042E-01  3.412E-02  5.237E-04  5.328E-02  3.212E+00  9.587E-01
  4.000E-03  1.105E-01  3.357E-02  4.962E-04  5.280E-02  3.186E+00  9.868E-01
  4.000E-03  1.168E-01  3.303E-02  4.698E-04  5.234E-02  3.079E+00  1.013E+00
  4.000E-03  1.231E-01  3.248E-02  4.444E-04  5.189E-02  2.905E+00  1.036E+00
  4.000E-03  1.294E-01  3.193E-02  4.202E-04  5.147E-02  2.681E+00  1.056E+00
  4.000E-03  1.357E-01  3.139E-02  3.969E-04  5.107E-02  2.427E+00  1.073E+00
  4.000E-03  1.420E-01  3.084E-02  3.746E-04  5.069E-02  2.164E+00  1.086E+00
  4.000E-03  1.483E-01  3.030E-02  3.533E-04  5.032E-02  1.910E+00  1.095E+00
  4.000E-03  1.547E-01  2.975E-02  3.329E-04  4.997E-02  1.677E+00  1.102E+00
  4.000E-03  1.610E-01  2.921E-02  3.135E-04  4.964E-02  1.473E+00  1.105E+00
  4.000E-03  1.673E-01  2.867E-02  2.949E-04  4.933E-02  1.302E+00  1.107E+00
  4.000E-03  1.736E-01  2.812E-02  2.772E-04  4.903E-02  1.163E+00  1.107E+00
  4.000E-03  1.799E-01  2.758E-02  2.604E-04  4.874E-02  1.054E+00  1.106E+00
  4.000E-03  1.862E-01  2.704E-02  2.443E-04  4.847E-02  9.704E-01  1.104E+00
  4.000E-03  1.925E-01  2.650E-02  2.291E-04  4.821E-02  9.076E-01  1.101E+00
  4.000E-03  1.988E-01  2.595E-02  2.146E-04  4.797E-02  8.614E-01  1.098E+00
  4.000E-03  2.052E-01  2.541E-02  2.009E-04  4.774E-02  8.278E-01  1.094E+00
  4.000E-03  2.115E-01  2.487E-02  1.880E-04  4.752E-02  8.035E-01  1.090E+00
  4.000E-03  2.178E-01  2.433E-02  1.757E-04  4.731E-02  7.859E-01  1.086E+00
  4.000E-03  2.241E-01  2.379E-02  1.641E-04  4.712E-02  7.731E-01  1.082E+00
  4.000E-03  2.304E-01  2.326E-02  1.531E-04  4.693E-02  7.634E-01  1.078E+00
  4.000E-03  2.367E-01  2.272E-02  1.428E-04  4.676E-02  7.559E-01  1.074E+00
  4.000E-03  2.430E-01  2.218E-02  1.331E-04  4.659E-02  7.498E-01  1.070E+00
  4.000E-03  2.493E-01  2.164E-02  1.239E-04  4.643E-02  7.446E-01  1.066E+00
  4.000E-03  2.557E-01  2.110E-02  1.153E-04  4.629E-02  7.400E-01  1.062E+00
  4.000E-03  2.620E-01  2.056E-02  1.072E-04  4.615E-02  7.358E-01  1.058E+00
  4.000E-03  2.683E-01  2.003E-02  9.963E-05  4.602E-02  7.317E-01  1.054E+00
  4.000E-03  2.746E-01  1.949E-02  9.252E-05  4.589E-02  7.278E-01  1.051E+00
  4.000E-03  2.809E-01  1.895E-02  8.586E-05  4.578E-02  7.240E-01  1.047E+00
  4.000E-03  2.872E-01  1.842E-02  7.962E-05  4.567E-02  7.202E-01  1.043E+00
  4.000E-03  2.935E-01  1.788E-02  7.379E-05  4.556E-02  7.164E-01  1.039E+00
  4.000E-03  2.998E-01  1.735E-02  6.834E-05  4.546E-02  7.127E-01  1.035E+00
  4.000E-03  3.062E-01  1.681E-02  6.326E-05  4.537E-02  7.089E-01  1.031E+00
  4.000E-03  3.125E-01  1.627E-02  5.851E-05  4.529E-02  7.052E-01  1.028E+00
  4.000E-03  3.188E-01  1.574E-02  5.408E-05  4.521E-02  7.015E-01  1.024E+00
  4.000E-03  3.251E-01  1.520E-02  4.996E-05  4.513E-02  6.978E-01  1.020E+00
  4.000E-03  3.314E-01  1.467E-02  4.613E-05  4.506E-02  6.941E-01  1.016E+00
  4.000E-03  3.377E-01  1.413E-02  4.256E-05  4.499E-02  6.904E-01  1.012E+00
  4.000E-03  3.440E-01  1.360E-02  3.924E-05  4.493E-02  6.867E-01  1.009E+00
  4.000E-03  3.503E-01  1.307E-02  3.615E-05  4.487E-02  6.830E-01  1.005E+00
  4.000E-03  3.567E-01  1.253E-02  3.329E-05  4.481E-02  6.793E-01  1.001E+00
  4.000E-03  3.630E-01  1.200E-02  3.063E-05  4.476E-02  6.757E-01  9.975E-01
  4.000E-03  3.693E-01  1.146E-02  2.817E-05  4.471E-02  6.720E-01  9.938E-01
  4.000E-03  3.756E-01  1.093E-02  2.588E-05  4.466E-02  6.684E-01  9.901E-01
  4.000E-03  3.819E-01  1.039E-02  2.376E-05  4.462E-02  6.648E-01  9.864E-01
  4.000E-03  3.882E-01  9.861E-03  2.180E-05  4.458E-02  6.612E-01  9.827E-01
  4.000E-03  3.945E-01  9.327E-03  1.999E-05  4.454E-02  6.577E-01  9.790E-01
  4.000E-03  4.008E-01  8.793E-03  1.831E-05  4.450E-02  6.541E-01  9.753E-01
  4.000E-03  4.072E-01  8.260E-03  1.676E-05  4.447E-02  6.506E-01  9.716E-01
  4.000E-03  4.135E-01  7.726E-03  1.533E-05  4.443E-02  6.471E-01  9.680E-01
  4.000E-03  4.198E-01  7.193E-03  1.400E-05  4.440E-02  6.436E-01  9.643E-01
  4.000E-03  4.261E-01  6.660E-03  1.278E-05  4.438E-02  6.402E-01  9.606E-01
  4.000E-03  4.324E-01  6.127E-03  1.166E-05  4.435E-02  6.368E-01  9.570E-01
  4.000E-03  4.387E-01  5.593E-03  1.062E-05  4.432E-02  6.335E-01  9.533E-01
  4.000E-03  4.450E-01  5.060E-03  9.661E-06  4.430E-02  6.303E-01  9.497E-01
  4.000E-03  4.513E-01  4.527E-03  8.779E-06  4.428E-02  6.272E-01  9.461E-01
  4.000E-03  4.577E-01  3.994E-03  7.964E-06  4.426E-02  6.242E-01  9.425E-01
  4.000E-03  4.640E-01  3.461E-03  7.210E-06  4.424E-02  6.214E-01  9.389E-01
  4.000E-03  4.703E-01  2.928E-03  6.509E-06  4.422E-02  6.189E-01  9.353E-01
  4.000E-03  4.766E-01  2.395E-03  5.849E-06  4.420E-02  6.166E-01  9.317E-01
  4.000E-03  4.829E-01  1.862E-03  5.218E-06  4.419E-02  6.146E-01  9.282E-01
  4.000E-03  4.892E-01  1.330E-03  4.595E-06  4.417E-02  6.130E-01  9.247E-01
  4.000E-03  4.955E-01  7.968E-04  3.942E-06  4.416E-02  6.119E-01  9.213E-01
  4.000E-03  5.018E-01  2.639E-04  3.233E-06  4.414E-02  6.113E-01  9.184E-01
  4.000E-03  5.050E-01  0.000E+00  3.233E-06  4.414E-02  6.113E-01  9.184E-01
  1.200E-02  0.000E+00  4.322E-02  1.300E-03  6.500E-02  7.261E-01  7.443E-01
  1.200E-02  3.156E-03  4.294E-02  1.300E-03  6.512E-02  7.261E-01  7.443E-01
  1.200E-02  9.469E-03  4.237E-02  1.214E-03  6.521E-02  7.417E-01  7.445E-01
  1.200E-02  1.578E-02  4.182E-02  1.141E-03  6.528E-02  7.745E-01  7.452E-01
  1.200E-02  2.209E-02  4.127E-02  1.096E-03  6.532E-02  8.269E-01  7.466E-01
  1.200E-02  2.841E-02  4.072E-02  1.063E-03  6.535E-02  9.029E-01  7.489E-01
  1.200E-02  3.472E-02  4.017E-02  1.033E-03  6.537E-02  1.007E+00  7.526E-01
  1.200E-02  4.103E-02  3.962E-02  1.002E-03  6.538E-02  1.142E+00  7.580E-01
  1.200E-02  4.734E-02  3.907E-02  9.720E-04  6.539E-02  1.313E+00  7.655E-01
  1.200E-02  5.366E-02  3.852E-02  9.429E-04  6.539E-02  1.518E+00  7.755E-01
  1.200E-02  5.997E-02  3.797E-02  9.142E-04  6.538E-02  1.757E+00  7.883E-01
  1.200E-02  6.628E-02  3.742E-02  8.858E-04  6.536E-02  2.021E+00  8.043E-01
  1.200E-02  7.259E-02  3.687E-02  8.577E-04  6.534E-02  2.297E+00  8.235E-01
  1.200E-02  7.891E-02  3.632E-02  8.298E-04  6.531E-02  2.569E+00  8.458E-01
  1.200E-02  8.522E-02  3.577E-02  8.021E-04  6.529E-02  2.816E+00  8.708E-01
  1.200E-02  9.153E-02  3.523E-02  7.748E-04  6.525E-02  3.017E+00  8.978E-01
  1.200E-02  9.784E-02  3.468E-02  7.478E-04  6.522E-02  3.153E+00  9.260E-01
  1.200E-02  1.042E-01  3.413E-02  7.211E-04  6.518E-02  3.210E+00  9.545E-01
  1.200E-02  1.105E-01  3.358E-02  6.948E-04  6.514E-02  3.184E+00  9.820E-01
  1.200E-02  1.168E-01  3.303E-02  6.689E-04  6.510E-02  3.078E+00  1.008E+00
  1.200E-02  1.231E-01  3.249E-02  6.435E-04  6.506E-02  2.904E+00  1.031E+00
  1.200E-02  1.294E-01  3.194E-02  6.185E-04  6.502E-02  2.680E+00  1.051E+00
  1.200E-02  1.357E-01  3.139E-02  5.941E-04  6.497E-02  2.427E+00  1.068E+00
  1.200E-02  1.420E-01  3.085E-02  5.701E-04  6.493E-02  2.165E+00  1.081E+00
  1.200E-02  1.483E-01  3.030E-02  5.468E-04  6.489E-02  1.912E+00  1.091E+00
  1.200E-02  1.547E-01  2.976E-02  5.240E-04  6.484E-02  1.680E+00  1.098E+00
  1.200E-02  1.610E-01  2.921E-02  5.017E-04  6.480E-02  1.477E+00  1.103E+00
  1.200E-02  1.673E-01  2.867E-02  4.801E-04  6.475E-02  1.306E+00  1.105E+00
  1.200E-02  1.736E-01  2.813E-02  4.591E-04  6.471E-02  1.168E+00  1.106E+00
  1.200E-02  1.799E-01  2.758E-02  4.388E-04  6.467E-02  1.059E+00  1.105E+00
  1.200E-02  1.862E-01  2.704E-02  4.190E-04  6.462E-02  9.759E-01  1.103E+00
  1.200E-02  1.925E-01  2.650E-02  3.999E-04  6.458E-02  9.134E-01  1.101E+00
  1.200E-02  1.988E-01  2.596E-02  3.815E-04  6.454E-02  8.674E-01  1.098E+00
  1.200E-02  2.052E-01  2.542E-02  3.636E-04  6.450E-02  8.340E-01  1.095E+00
  1.200E-02  2.115E-01  2.488E-02  3.465E-04  6.446E-02  8.099E-01  1.091E+00
  1.200E-02  2.178E-01  2.434E-02  3.299E-04  6.442E-02  7.924E-01  1.087E+00
  1.200E-02  2.241E-01  2.380E-02  3.140E-04  6.438E-02  7.796E-01  1.084E+00
  1.200E-02  2.304E-01  2.326E-02  2.987E-04  6.435E-02  7.700E-01  1.080E+00
  1.200E-02  2.367E-01  2.272E-02  2.840E-04  6.431E-02  7.625E-01  1.076E+00
  1.200E-02  2.430E-01  2.218E-02  2.699E-04  6.427E-02  7.565E-01  1.072E+00
  1.200E-02  2.493E-01  2.164E-02  2.564E-04  6.424E-02  7.513E-01  1.068E+00
  1.200E-02  2.557E-01  2.110E-02  2.435E-04  6.421E-02  7.467E-01  1.065E+00
  1.200E-02  2.620E-01  2.057E-02  2.312E-04  6.417E-02  7.425E-01  1.061E+00
  1.200E-02  2.683E-01  2.003E-02  2.194E-04  6.414E-02  7.385E-01  1.057E+00
  1.200E-02  2.746E-01  1.949E-02  2.081E-04  6.411E-02  7.346E-01  1.053E+00
  1.200E-02  2.809E-01  1.896E-02  1.974E-04  6.408E-02  7.307E-01  1.049E+00
  1.200E-02  2.872E-01  1.842E-02  1.871E-04  6.405E-02  7.270E-01  1.045E+00
  1.200E-02  2.935E-01  1.788E-02  1.774E-04  6.402E-02  7.232E-01  1.042E+00
  1.200E-02  2.998E-01  1.735E-02  1.681E-04  6.400E-02  7.195E-01  1.038E+00
  1.200E-02  3.062E-01  1.681E-02  1.592E-04  6.397E-02  7.157E-01  1.034E+00
  1.200E-02  3.125E-01  1.628E-02  1.508E-04  6.395E-02  7.120E-01  1.030E+00
  1.200E-02  3.188E-01  1.574E-02  1.428E-04  6.392E-02  7.083E-01  1.027E+00
  1.200E-02  3.251E-01  1.521E-02  1.352E-04  6.390E-02  7.046E-01  1.023E+00
  1.200E-02  3.314E-01  1.467E-02  1.280E-04  6.388E-02  7.009E-01  1.019E+00
  1.200E-02  3.377E-01  1.414E-02  1.212E-04  6.385E-02  6.972E-01  1.015E+00
  1.200E-02  3.440E-01  1.360E-02  1.147E-04  6.383E-02  6.935E-01  1.012E+00
  1.200E-02  3.503E-01  1.307E-02  1.086E-04  6.381E-02  6.898E-01  1.008E+00
  1.200E-02  3.567E-01  1.253E-02  1.027E-04  6.379E-02  6.861E-01  1.004E+00
  1.200E-02  3.630E-01  1.200E-02  9.720E-05  6.378E-02  6.825E-01  1.001E+00
  1.200E-02  3.693E-01  1.146E-02  9.197E-05  6.376E-02  6.788E-01  9.970E-01
  1.200E-02  3.756E-01  1.093E-02  8.701E-05  6.374E-02  6.752E-01  9.933E-01
  1.200E-02  3.819E-01  1.040E-02  8.232E-05  6.372E-02  6.716E-01  9.896E-01
  1.200E-02  3.882E-01  9.862E-03  7.788E-05  6.371E-02  6.680E-01  9.859E-01
  1.200E-02  3.945E-01  9.328E-03  7.368E-05  6.369E-02  6.644E-01  9.822E-01
  1.200E-02  4.008E-01  8.794E-03  6.970E-05  6.368E-02  6.608E-01  9.786E-01
  1.200E-02  4.072E-01  8.261E-03  6.594E-05  6.366E-02  6.573E-01  9.749E-01
  1.200E-02  4.135E-01  7.727E-03  6.238E-05  6.365E-02  6.538E-01  9.713E-01
  1.200E-02  4.198E-01  7.194E-03  5.902E-05  6.364E-02  6.503E-01  9.676E-01
  1.200E-02  4.261E-01  6.660E-03  5.584E-05  6.362E-02  6.469E-01  9.640E-01
  1.200E-02  4.324E-01  6.127E-03  5.283E-05  6.361E-02  6.435E-01  9.603E-01
  1.200E-02  4.387E-01  5.594E-03  4.999E-05  6.360E-02  6.402E-01  9.567E-01
  1.200E-02  4.450E-01  5.061E-03  4.731E-05  6.359E-02  6.369E-01  9.531E-01
  1.200E-02  4.513E-01  4.528E-03  4.477E-05  6.358E-02  6.338E-01  9.494E-01
  1.200E-02  4.577E-01  3.995E-03  4.237E-05  6.357E-02  6.308E-01  9.458E-01
  1.200E-02  4.640E-01  3.462E-03  4.009E-05  6.356E-02  6.280E-01  9.422E-01
  1.200E-02  4.703E-01  2.929E-03  3.793E-05  6.355E-02  6.254E-01  9.387E-01
  1.200E-02  4.766E-01  2.396E-03  3.587E-05  6.354E-02  6.231E-01  9.351E-01
  1.200E-02  4.829E-01  1.863E-03  3.389E-05  6.353E-02  6.211E-01  9.316E-01
  1.200E-02  4.892E-01  1.330E-03  3.197E-05  6.352E-02  6.195E-01  9.281E-01
  1.200E-02  4.955E-01  7.971E-04  3.004E-05  6.351E-02  6.184E-01  9.247E-01
  1.200E-02  5.018E-01  2.643E-04  2.805E-05  6.350E-02  6.178E-01  9.218E-01
  1.200E-02  5.050E-01  0.000E+00  2.805E-05  6.350E-02  6.178E-01  9.218E-01
  2.000E-02  0.000E+00  4.321E-02  9.725E-04  6.500E-02  7.318E-01  7.458E-01
  2.000E-02  3.156E-03  4.294E-02  9.725E-04  6.510E-02  7.318E-01  7.458E-01
  2.000E-02  9.469E-03  4.240E-02  9.511E-04  6.521E-02  7.475E-01  7.460E-01
  2.000E-02  1.578E-02  4.184E-02  9.250E-04  6.533E-02  7.804E-01  7.467E-01
  2.000E-02  2.209E-02  4.128E-02  9.036E-04  6.543E-02  8.331E-01  7.481E-01
  2.000E-02  2.841E-02  4.073E-02  8.852E-04  6.553E-02  9.093E-01  7.504E-01
  2.000E-02  3.472E-02  4.018E-02  8.666E-04  6.562E-02  1.013E+00  7.541E-01
  2.000E-02  4.103E-02  3.963E-02  8.469E-04  6.571E-02  1.149E+00  7.594E-01
  2.000E-02  4.734E-02  3.908E-02  8.266E-04  6.580E-02  1.319E+00  7.669E-01
  2.000E-02  5.366E-02  3.853E-02  8.059E-04  6.588E-02  1.525E+00  7.768E-01
  2.000E-02  5.997E-02  3.798E-02  7.848E-04  6.596E-02  1.763E+00  7.895E-01
  2.000E-02  6.628E-02  3.743E-02  7.633E-04  6.603E-02  2.027E+00  8.054E-01
  2.000E-02  7.259E-02  3.688E-02  7.415E-04  6.610E-02  2.303E+00  8.243E-01
  2.000E-02  7.891E-02  3.633E-02  7.194E-04  6.617E-02  2.574E+00  8.463E-01
  2.000E-02  8.522E-02  3.579E-02  6.971E-04  6.624E-02  2.821E+00  8.710E-01
  2.000E-02  9.153E-02  3.524E-02  6.747E-04  6.630E-02  3.021E+00  8.976E-01
  2.000E-02  9.784E-02  3.469E-02  6.523E-04  6.636E-02  3.156E+00  9.254E-01
  2.000E-02  1.042E-01  3.414E-02  6.299E-04  6.641E-02  3.213E+00  9.534E-01
  2.000E-02  1.105E-01  3.359E-02  6.076E-04  6.646E-02  3.187E+00  9.806E-01
  2.000E-02  1.168E-01  3.305E-02  5.855E-04  6.651E-02  3.081E+00  1.006E+00
  2.000E-02  1.231E-01  3.250E-02  5.636E-04  6.656E-02  2.907E+00  1.029E+00
  2.000E-02  1.294E-01  3.195E-02  5.420E-04  6.660E-02  2.684E+00  1.049E+00
  2.000E-02  1.357E-01  3.141E-02  5.206E-04  6.665E-02  2.432E+00  1.066E+00
  2.000E-02  1.420E-01  3.086E-02  4.997E-04  6.669E-02  2.171E+00  1.079E+00
  2.000E-02  1.483E-01  3.032E-02  4.791E-04  6.672E-02  1.918E+00  1.089E+00
  2.000E-02  1.547E-01  2.977E-02  4.590E-04  6.676E-02  1.687E+00  1.096E+00
  2.000E-02  1.610E-01  2.923E-02  4.394E-04  6.679E-02  1.485E+00  1.101E+00
  2.000E-02  1.673E-01  2.868E-02  4.202E-04  6.682E-02  1.315E+00  1.104E+00
  2.000E-02  1.736E-01  2.814E-02  4.016E-04  6.685E-02  1.177E+00  1.105E+00
  2.000E-02  1.799E-01  2.760E-02  3.835E-04  6.688E-02  1.069E+00  1.104E+00
  2.000E-02  1.862E-01  2.705E-02  3.659E-04  6.690E-02  9.856E-01  1.103E+00
  2.000E-02  1.925E-01  2.651E-02  3.489E-04  6.693E-02  9.234E-01  1.101E+00
  2.000E-02  1.988E-01  2.597E-02  3.324E-04  6.695E-02  8.776E-01  1.098E+00
  2.000E-02  2.052E-01  2.543E-02  3.166E-04  6.697E-02  8.444E-01  1.095E+00
  2.000E-02  2.115E-01  2.489E-02  3.012E-04  6.699E-02  8.204E-01  1.092E+00
  2.000E-02  2.178E-01  2.435E-02  2.865E-04  6.700E-02  8.030E-01  1.089E+00
  2.000E-02  2.241E-01  2.381E-02  2.723E-04  6.702E-02  7.903E-01  1.085E+00
  2.000E-02  2.304E-01  2.327E-02  2.587E-04  6.703E-02  7.807E-01  1.082E+00
  2.000E-02  2.367E-01  2.273E-02  2.457E-04  6.705E-02  7.733E-01  1.078E+00
  2.000E-02  2.430E-01  2.219E-02  2.332E-04  6.706E-02  7.673E-01  1.074E+00
  2.000E-02  2.493E-01  2.165E-02  2.213E-04  6.707E-02  7.622E-01  1.071E+00
  2.000E-02  2.557E-01  2.111E-02  2.098E-04  6.708E-02  7.576E-01  1.067E+00
  2.000E-02  2.620E-01  2.058E-02  1.989E-04  6.709E-02  7.534E-01  1.063E+00
  2.000E-02  2.683E-01  2.004E-02  1.885E-04  6.710E-02  7.494E-01  1.059E+00
  2.000E-02  2.746E-01  1.950E-02  1.786E-04  6.711E-02  7.455E-01  1.056E+00
  2.000E-02  2.809E-01  1.896E-02  1.691E-04  6.712E-02  7.417E-01  1.052E+00
  2.000E-02  2.872E-01  1.843E-02  1.602E-04  6.712E-02  7.379E-01  1.048E+00
  2.000E-02  2.935E-01  1.789E-02  1.516E-04  6.713E-02  7.342E-01  1.045E+00
  2.000E-02  2.998E-01  1.735E-02  1.435E-04  6.714E-02  7.304E-01  1.041E+00
  2.000E-02  3.062E-01  1.682E-02  1.358E-04  6.714E-02  7.267E-01  1.037E+00
  2.000E-02  3.125E-01  1.628E-02  1.285E-04  6.715E-02  7.230E-01  1.034E+00
  2.000E-02  3.188E-01  1.575E-02  1.215E-04  6.715E-02  7.193E-01  1.030E+00
  2.000E-02  3.251E-01  1.521E-02  1.150E-04  6.715E-02  7.156E-01  1.026E+00
  2.000E-02  3.314E-01  1.468E-02  1.087E-04  6.716E-02  7.118E-01  1.023E+00
  2.000E-02  3.377E-01  1.414E-02  1.028E-04  6.716E-02  7.081E-01  1.019E+00
  2.000E-02  3.440E-01  1.361E-02  9.725E-05  6.716E-02  7.044E-01  1.015E+00
  2.000E-02  3.503E-01  1.307E-02  9.198E-05  6.716E-02  7.008E-01  1.012E+00
  2.000E-02  3.567E-01  1.254E-02  8.698E-05  6.716E-02  6.971E-01  1.008E+00
  2.000E-02  3.630E-01  1.200E-02  8.227E-05  6.717E-02  6.934E-01  1.004E+00
  2.000E-02  3.693E-01  1.147E-02  7.781E-05  6.717E-02  6.897E-01  1.001E+00
  2.000E-02  3.756E-01  1.093E-02  7.359E-05  6.717E-02  6.861E-01  9.969E-01
  2.000E-02  3.819E-01  1.040E-02  6.962E-05  6.717E-02  6.825E-01  9.933E-01
  2.000E-02  3.882E-01  9.865E-03  6.586E-05  6.717E-02  6.788E-01  9.896E-01
  2.000E-02  3.945E-01  9.331E-03  6.231E-05  6.717E-02  6.752E-01  9.860E-01
  2.000E-02  4.008E-01  8.797E-03  5.896E-05  6.717E-02  6.717E-01  9.823E-01
  2.000E-02  4.072E-01  8.263E-03  5.580E-05  6.717E-02  6.681E-01  9.787E-01
  2.000E-02  4.135E-01  7.730E-03  5.282E-05  6.717E-02  6.646E-01  9.751E-01
  2.000E-02  4.198E-01  7.196E-03  5.000E-05  6.717E-02  6.611E-01  9.714E-01
  2.000E-02  4.261E-01  6.663E-03  4.735E-05  6.717E-02  6.576E-01  9.678E-01
  2.000E-02  4.324E-01  6.129E-03  4.484E-05  6.717E-02  6.542E-01  9.642E-01
  2.000E-02  4.387E-01  5.596E-03  4.248E-05  6.717E-02  6.508E-01  9.606E-01
  2.000E-02  4.450E-01  5.063E-03  4.025E-05  6.717E-02  6.476E-01  9.570E-01
  2.000E-02  4.513E-01  4.529E-03  3.815E-05  6.717E-02  6.444E-01  9.534E-01
  2.000E-02  4.577E-01  3.996E-03  3.616E-05  6.717E-02  6.414E-01  9.498E-01
  2.000E-02  4.640E-01  3.463E-03  3.428E-05  6.716E-02  6.386E-01  9.462E-01
  2.000E-02  4.703E-01  2.930E-03  3.250E-05  6.716E-02  6.360E-01  9.426E-01
  2.000E-02  4.766E-01  2.397E-03  3.079E-05  6.716E-02  6.336E-01  9.391E-01
  2.000E-02  4.829E-01  1.864E-03  2.916E-05  6.716E-02  6.316E-01  9.356E-01
  2.000E-02  4.892E-01  1.331E-03  2.755E-05  6.716E-02  6.300E-01  9.321E-01
  2.000E-02  4.955E-01  7.985E-04  2.592E-05  6.716E-02  6.289E-01  9.287E-01
  2.000E-02  5.018E-01  2.658E-04  2.418E-05  6.716E-02  6.283E-01  9.258E-01
  2.000E-02  5.050E-01  0.000E+00  2.418E-05  6.716E-02  6.283E-01  9.258E-01
  2.800E-02  0.000E+00  4.319E-02  8.852E-04  6.500E-02  7.391E-01  7.479E-01
  2.800E-02  3.156E-03  4.293E-02  8.852E-04  6.508E-02  7.391E-01  7.479E-01
  2.800E-02  9.469E-03  4.239E-02  8.764E-04  6.518E-02  7.550E-01  7.481E-01
  2.800E-02  1.578E-02  4.184E-02  8.593E-04  6.529E-02  7.881E-01  7.488E-01
  2.800E-02  2.209E-02  4.129E-02  8.391E-04  6.540E-02  8.412E-01  7.502E-01
  2.800E-02  2.841E-02  4.073E-02  8.189E-04  6.550E-02  9.177E-01  7.525E-01
  2.800E-02  3.472E-02  4.019E-02  7.988E-04  6.560E-02  1.022E+00  7.562E-01
  2.800E-02  4.103E-02  3.964E-02  7.786E-04  6.569E-02  1.158E+00  7.615E-01
  2.800E-02  4.734E-02  3.909E-02  7.581E-04  6.578E-02  1.329E+00  7.690E-01
  2.800E-02  5.366E-02  3.854E-02  7.375E-04  6.587E-02  1.535E+00  7.789E-01
  2.800E-02  5.997E-02  3.799E-02  7.170E-04  6.596E-02  1.773E+00  7.916E-01
  2.800E-02  6.628E-02  3.744E-02  6.965E-04  6.604E-02  2.036E+00  8.074E-01
  2.800E-02  7.259E-02  3.689E-02  6.760E-04  6.612E-02  2.312E+00  8.263E-01
  2.800E-02  7.891E-02  3.634E-02  6.556E-04  6.620E-02  2.583E+00  8.481E-01
  2.800E-02  8.522E-02  3.579E-02  6.352E-04  6.627E-02  2.829E+00  8.726E-01
  2.800E-02  9.153E-02  3.525E-02  6.150E-04  6.635E-02  3.029E+00  8.991E-01
  2.800E-02  9.784E-02  3.470E-02  5.949E-04  6.642E-02  3.164E+00  9.267E-01
  2.800E-02  1.042E-01  3.415E-02  5.750E-04  6.648E-02  3.220E+00  9.545E-01
  2.800E-02  1.105E-01  3.360E-02  5.553E-04  6.655E-02  3.194E+00  9.815E-01
  2.800E-02  1.168E-01  3.305E-02  5.359E-04  6.661E-02  3.088E+00  1.007E+00
  2.800E-02  1.231E-01  3.251E-02  5.167E-04  6.667E-02  2.915E+00  1.029E+00
  2.800E-02  1.294E-01  3.196E-02  4.979E-04  6.673E-02  2.692E+00  1.049E+00
  2.800E-02  1.357E-01  3.142E-02  4.793E-04  6.678E-02  2.440E+00  1.066E+00
  2.800E-02  1.420E-01  3.087E-02  4.612E-04  6.684E-02  2.180E+00  1.079E+00
  2.800E-02  1.483E-01  3.032E-02  4.433E-04  6.689E-02  1.928E+00  1.089E+00
  2.800E-02  1.547E-01  2.978E-02  4.259E-04  6.694E-02  1.697E+00  1.096E+00
  2.800E-02  1.610E-01  2.923E-02  4.089E-04  6.698E-02  1.496E+00  1.101E+00
  2.800E-02  1.673E-01  2.869E-02  3.923E-04  6.703E-02  1.326E+00  1.104E+00
  2.800E-02  1.736E-01  2.815E-02  3.761E-04  6.707E-02  1.189E+00  1.105E+00
  2.800E-02  1.799E-01  2.760E-02  3.604E-04  6.711E-02  1.081E+00  1.105E+00
  2.800E-02  1.862E-01  2.706E-02  3.451E-04  6.715E-02  9.981E-01  1.103E+00
  2.800E-02  1.925E-01  2.652E-02  3.303E-04  6.719E-02  9.361E-01  1.102E+00
  2.800E-02  1.988E-01  2.598E-02  3.159E-04  6.722E-02  8.905E-01  1.099E+00
  2.800E-02  2.052E-01  2.544E-02  3.020E-04  6.725E-02  8.573E-01  1.096E+00
  2.800E-02  2.115E-01  2.489E-02  2.886E-04  6.728E-02  8.334E-01  1.093E+00
  2.800E-02  2.178E-01  2.435E-02  2.756E-04  6.731E-02  8.162E-01  1.090E+00
  2.800E-02  2.241E-01  2.381E-02  2.631E-04  6.734E-02  8.035E-01  1.087E+00
  2.800E-02  2.304E-01  2.327E-02  2.511E-04  6.737E-02  7.940E-01  1.083E+00
  2.800E-02  2.367E-01  2.273E-02  2.395E-04  6.739E-02  7.867E-01  1.080E+00
  2.800E-02  2.430E-01  2.219E-02  2.284E-04  6.742E-02  7.807E-01  1.076E+00
  2.800E-02  2.493E-01  2.166E-02  2.177E-04  6.744E-02  7.756E-01  1.073E+00
  2.800E-02  2.557E-01  2.112E-02  2.074E-04  6.746E-02  7.710E-01  1.069E+00
  2.800E-02  2.620E-01  2.058E-02  1.976E-04  6.748E-02  7.668E-01  1.066E+00
  2.800E-02  2.683E-01  2.004E-02  1.882E-04  6.750E-02  7.629E-01  1.062E+00
  2.800E-02  2.746E-01  1.950E-02  1.792E-04  6.752E-02  7.590E-01  1.059E+00
  2.800E-02  2.809E-01  1.897E-02  1.705E-04  6.754E-02  7.552E-01  1.055E+00
  2.800E-02  2.872E-01  1.843E-02  1.623E-04  6.755E-02  7.514E-01  1.051E+00
  2.800E-02  2.935E-01  1.789E-02  1.544E-04  6.757E-02  7.477E-01  1.048E+00
  2.800E-02  2.998E-01  1.736E-02  1.469E-04  6.758E-02  7.439E-01  1.044E+00
  2.800E-02  3.062E-01  1.682E-02  1.398E-04  6.760E-02  7.402E-01  1.041E+00
  2.800E-02  3.125E-01  1.628E-02  1.329E-04  6.761E-02  7.365E-01  1.037E+00
  2.800E-02  3.188E-01  1.575E-02  1.264E-04  6.762E-02  7.328E-01  1.033E+00
  2.800E-02  3.251E-01  1.521E-02  1.202E-04  6.763E-02  7.291E-01  1.030E+00
  2.800E-02  3.314E-01  1.468E-02  1.143E-04  6.765E-02  7.253E-01  1.026E+00
  2.800E-02  3.377E-01  1.414E-02  1.087E-04  6.766E-02  7.216E-01  1.023E+00