VARIABLES="XP","YP","P","U","V","TS","TF"
ZONE T="Zone 001"I=    82 J=    12 F=POINT
  0.000E+00  0.000E+00  1.013E+05  0.000E+00  0.000E+00  3.000E+02  2.930E+02
  0.000E+00  3.156E-03  1.013E+05  0.000E+00  0.000E+00  3.000E+02  2.930E+02
  0.000E+00  9.469E-03  1.013E+05  0.000E+00  0.000E+00  3.000E+02  2.930E+02
  0.000E+00  1.578E-02  1.013E+05  0.000E+00  0.000E+00  3.000E+02  2.930E+02
  0.000E+00  2.209E-02  1.013E+05  0.000E+00  0.000E+00  3.000E+02  2.930E+02
  0.000E+00  2.841E-02  1.013E+05  0.000E+00  0.000E+00  3.000E+02  2.930E+02
  0.000E+00  3.472E-02  1.013E+05  0.000E+00  0.000E+00  3.000E+02  2.930E+02
  0.000E+00  4.103E-02  1.013E+05  0.000E+00  0.000E+00  3.000E+02  2.930E+02
  0.000E+00  4.734E-02  1.013E+05  0.000E+00  0.000E+00  3.000E+02  2.930E+02
  0.000E+00  5.366E-02  1.013E+05  0.000E+00  0.000E+00  3.000E+02  2.930E+02
  0.000E+00  5.997E-02  1.013E+05  0.000E+00  0.000E+00  3.000E+02  2.930E+02
  0.000E+00  6.628E-02  1.013E+05  0.000E+00  0.000E+00  3.000E+02  2.930E+02
  0.000E+00  7.259E-02  1.013E+05  0.000E+00  0.000E+00  3.000E+02  2.930E+02
  0.000E+00  7.891E-02  1.013E+05  0.000E+00  0.000E+00  3.000E+02  2.930E+02
  0.000E+00  8.522E-02  1.013E+05  0.000E+00  0.000E+00  3.000E+02  2.930E+02
  0.000E+00  9.153E-02  1.013E+05  0.000E+00  0.000E+00  3.000E+02  2.930E+02
  0.000E+00  9.784E-02  1.013E+05  0.000E+00  0.000E+00  3.000E+02  2.930E+02
  0.000E+00  1.042E-01  1.013E+05  0.000E+00  0.000E+00  3.000E+02  2.930E+02
  0.000E+00  1.105E-01  1.013E+05  0.000E+00  0.000E+00  3.000E+02  2.930E+02
  0.000E+00  1.168E-01  1.013E+05  0.000E+00  0.000E+00  3.000E+02  2.930E+02
  0.000E+00  1.231E-01  1.013E+05  0.000E+00  0.000E+00  3.000E+02  2.930E+02
  0.000E+00  1.294E-01  1.013E+05  0.000E+00  0.000E+00  3.000E+02  2.930E+02
  0.000E+00  1.357E-01  1.013E+05  0.000E+00  0.000E+00  3.000E+02  2.930E+02
  0.000E+00  1.420E-01  1.013E+05  0.000E+00  0.000E+00  3.000E+02  2.930E+02
  0.000E+00  1.483E-01  1.013E+05  0.000E+00  0.000E+00  3.000E+02  2.930E+02
  0.000E+00  1.547E-01  1.013E+05  0.000E+00  0.000E+00  3.000E+02  2.930E+02
  0.000E+00  1.610E-01  1.013E+05  0.000E+00  0.000E+00  3.000E+02  2.930E+02
  0.000E+00  1.673E-01  1.013E+05  0.000E+00  0.000E+00  3.000E+02  2.930E+02
  0.000E+00  1.736E-01  1.013E+05  0.000E+00  0.000E+00  3.000E+02  2.930E+02
  0.000E+00  1.799E-01  1.013E+05  0.000E+00  0.000E+00  3.000E+02  2.930E+02
  0.000E+00  1.862E-01  1.013E+05  0.000E+00  0.000E+00  3.000E+02  2.930E+02
  0.000E+00  1.925E-01  1.013E+05  0.000E+00  0.000E+00  3.000E+02  2.930E+02
  0.000E+00  1.988E-01  1.013E+05  0.000E+00  0.000E+00  3.000E+02  2.930E+02
  0.000E+00  2.052E-01  1.013E+05  0.000E+00  0.000E+00  3.000E+02  2.930E+02
  0.000E+00  2.115E-01  1.013E+05  0.000E+00  0.000E+00  3.000E+02  2.930E+02
  0.000E+00  2.178E-01  1.013E+05  0.000E+00  0.000E+00  3.000E+02  2.930E+02
  0.000E+00  2.241E-01  1.013E+05  0.000E+00  0.000E+00  3.000E+02  2.930E+02
  0.000E+00  2.304E-01  1.013E+05  0.000E+00  0.000E+00  3.000E+02  2.930E+02
  0.000E+00  2.367E-01  1.013E+05  0.000E+00  0.000E+00  3.000E+02  2.930E+02
  0.000E+00  2.430E-01  1.013E+05  0.000E+00  0.000E+00  3.000E+02  2.930E+02
  0.000E+00  2.493E-01  1.013E+05  0.000E+00  0.000E+00  3.000E+02  2.930E+02
  0.000E+00  2.557E-01  1.013E+05  0.000E+00  0.000E+00  3.000E+02  2.930E+02
  0.000E+00  2.620E-01  1.013E+05  0.000E+00  0.000E+00  3.000E+02  2.930E+02
  0.000E+00  2.683E-01  1.013E+05  0.000E+00  0.000E+00  3.000E+02  2.930E+02
  0.000E+00  2.746E-01  1.013E+05  0.000E+00  0.000E+00  3.000E+02  2.930E+02
  0.000E+00  2.809E-01  1.013E+05  0.000E+00  0.000E+00  3.000E+02  2.930E+02
  0.000E+00  2.872E-01  1.013E+05  0.000E+00  0.000E+00  3.000E+02  2.930E+02
  0.000E+00  2.935E-01  1.013E+05  0.000E+00  0.000E+00  3.000E+02  2.930E+02
  0.000E+00  2.998E-01  1.013E+05  0.000E+00  0.000E+00  3.000E+02  2.930E+02
  0.000E+00  3.062E-01  1.013E+05  0.000E+00  0.000E+00  3.000E+02  2.930E+02
  0.000E+00  3.125E-01  1.013E+05  0.000E+00  0.000E+00  3.000E+02  2.930E+02
  0.000E+00  3.188E-01  1.013E+05  0.000E+00  0.000E+00  3.000E+02  2.930E+02
  0.000E+00  3.251E-01  1.013E+05  0.000E+00  0.000E+00  3.000E+02  2.930E+02
  0.000E+00  3.314E-01  1.013E+05  0.000E+00  0.000E+00  3.000E+02  2.930E+02
  0.000E+00  3.377E-01  1.013E+05  0.000E+00  0.000E+00  3.000E+02  2.930E+02
  0.000E+00  3.440E-01  1.013E+05  0.000E+00  0.000E+00  3.000E+02  2.930E+02
  0.000E+00  3.503E-01  1.013E+05  0.000E+00  0.000E+00  3.000E+02  2.930E+02
  0.000E+00  3.567E-01  1.013E+05  0.000E+00  0.000E+00  3.000E+02  2.930E+02
  0.000E+00  3.630E-01  1.013E+05  0.000E+00  0.000E+00  3.000E+02  2.930E+02
  0.000E+00  3.693E-01  1.013E+05  0.000E+00  0.000E+00  3.000E+02  2.930E+02
  0.000E+00  3.756E-01  1.013E+05  0.000E+00  0.000E+00  3.000E+02  2.930E+02
  0.000E+00  3.819E-01  1.013E+05  0.000E+00  0.000E+00  3.000E+02  2.930E+02
  0.000E+00  3.882E-01  1.013E+05  0.000E+00  0.000E+00  3.000E+02  2.930E+02
  0.000E+00  3.945E-01  1.013E+05  0.000E+00  0.000E+00  3.000E+02  2.930E+02
  0.000E+00  4.008E-01  1.013E+05  0.000E+00  0.000E+00  3.000E+02  2.930E+02
  0.000E+00  4.072E-01  1.013E+05  0.000E+00  0.000E+00  3.000E+02  2.930E+02
  0.000E+00  4.135E-01  1.013E+05  0.000E+00  0.000E+00  3.000E+02  2.930E+02
  0.000E+00  4.198E-01  1.013E+05  0.000E+00  0.000E+00  3.000E+02  2.930E+02
  0.000E+00  4.261E-01  1.013E+05  0.000E+00  0.000E+00  3.000E+02  2.930E+02
  0.000E+00  4.324E-01  1.013E+05  0.000E+00  0.000E+00  3.000E+02  2.930E+02
  0.000E+00  4.387E-01  1.013E+05  0.000E+00  0.000E+00  3.000E+02  2.930E+02
  0.000E+00  4.450E-01  1.013E+05  0.000E+00  0.000E+00  3.000E+02  2.930E+02
  0.000E+00  4.513E-01  1.013E+05  0.000E+00  0.000E+00  3.000E+02  2.930E+02
  0.000E+00  4.577E-01  1.013E+05  0.000E+00  0.000E+00  3.000E+02  2.930E+02
  0.000E+00  4.640E-01  1.013E+05  0.000E+00  0.000E+00  3.000E+02  2.930E+02
  0.000E+00  4.703E-01  1.013E+05  0.000E+00  0.000E+00  3.000E+02  2.930E+02
  0.000E+00  4.766E-01  1.013E+05  0.000E+00  0.000E+00  3.000E+02  2.930E+02
  0.000E+00  4.829E-01  1.013E+05  0.000E+00  0.000E+00  3.000E+02  2.930E+02
  0.000E+00  4.892E-01  1.013E+05  0.000E+00  0.000E+00  3.000E+02  2.930E+02
  0.000E+00  4.955E-01  1.013E+05  0.000E+00  0.000E+00  3.000E+02  2.930E+02
  0.000E+00  5.018E-01  1.013E+05  0.000E+00  0.000E+00  3.000E+02  2.930E+02
  0.000E+00  5.050E-01  1.013E+05  0.000E+00  0.000E+00  3.000E+02  2.930E+02
  1.417E-02  0.000E+00  1.013E+05  0.000E+00  0.000E+00  3.000E+02  2.982E+02
  1.417E-02  3.156E-03  1.013E+05  3.638E-01 -3.894E-02  3.000E+02  2.982E+02
  1.417E-02  9.469E-03  1.013E+05  8.398E-01 -2.943E-01  3.000E+02  2.983E+02
  1.417E-02  1.578E-02  1.013E+05  1.150E+00 -6.837E-01  3.000E+02  2.986E+02
  1.417E-02  2.209E-02  1.013E+05  1.350E+00 -1.150E+00  3.000E+02  2.991E+02
  1.417E-02  2.841E-02  1.013E+05  1.479E+00 -1.653E+00  3.000E+02  2.997E+02
  1.417E-02  3.472E-02  1.013E+05  1.562E+00 -2.170E+00  3.000E+02  3.006E+02
  1.417E-02  4.103E-02  1.013E+05  1.613E+00 -2.689E+00  3.000E+02  3.017E+02
  1.417E-02  4.734E-02  1.013E+05  1.637E+00 -3.202E+00  3.000E+02  3.031E+02
  1.417E-02  5.366E-02  1.013E+05  1.636E+00 -3.699E+00  3.000E+02  3.050E+02
  1.417E-02  5.997E-02  1.013E+05  1.605E+00 -4.172E+00  3.000E+02  3.074E+02
  1.417E-02  6.628E-02  1.013E+05  1.537E+00 -4.605E+00  3.000E+02  3.104E+02
  1.417E-02  7.259E-02  1.013E+05  1.425E+00 -4.980E+00  3.000E+02  3.144E+02
  1.417E-02  7.891E-02  1.013E+05  1.261E+00 -5.270E+00  3.000E+02  3.195E+02
  1.417E-02  8.522E-02  1.013E+05  1.040E+00 -5.443E+00  3.000E+02  3.262E+02
  1.417E-02  9.153E-02  1.013E+05  7.629E-01 -5.457E+00  3.000E+02  3.350E+02
  1.417E-02  9.784E-02  1.013E+05  4.386E-01 -5.273E+00  3.000E+02  3.468E+02
  1.417E-02  1.042E-01  1.013E+05  8.756E-02 -4.947E+00  3.000E+02  3.625E+02
  1.417E-02  1.105E-01  1.013E+05 -2.604E-01 -5.337E+00  3.000E+02  3.467E+02
  1.417E-02  1.168E-01  1.013E+05 -5.757E-01 -5.585E+00  3.000E+02  3.349E+02
  1.417E-02  1.231E-01  1.013E+05 -8.377E-01 -5.641E+00  3.000E+02  3.260E+02
  1.417E-02  1.294E-01  1.013E+05 -1.037E+00 -5.543E+00  3.000E+02  3.192E+02
  1.417E-02  1.357E-01  1.013E+05 -1.174E+00 -5.337E+00  3.000E+02  3.140E+02
  1.417E-02  1.420E-01  1.013E+05 -1.253E+00 -5.056E+00  3.000E+02  3.100E+02
  1.417E-02  1.483E-01  1.013E+05 -1.282E+00 -4.731E+00  3.000E+02  3.068E+02
  1.417E-02  1.547E-01  1.013E+05 -1.272E+00 -4.381E+00  3.000E+02  3.043E+02
  1.417E-02  1.610E-01  1.013E+05 -1.232E+00 -4.024E+00  3.000E+02  3.023E+02
  1.417E-02  1.673E-01  1.013E+05 -1.170E+00 -3.670E+00  3.000E+02  3.007E+02
  1.417E-02  1.736E-01  1.013E+05 -1.093E+00 -3.329E+00  3.000E+02  2.995E+02
  1.417E-02  1.799E-01  1.013E+05 -1.009E+00 -3.006E+00  3.000E+02  2.984E+02
  1.417E-02  1.862E-01  1.013E+05 -9.217E-01 -2.703E+00  3.000E+02  2.976E+02
  1.417E-02  1.925E-01  1.013E+05 -8.343E-01 -2.424E+00  3.000E+02  2.969E+02
  1.417E-02  1.988E-01  1.013E+05 -7.496E-01 -2.167E+00  3.000E+02  2.963E+02
  1.417E-02  2.052E-01  1.013E+05 -6.694E-01 -1.934E+00  3.000E+02  2.958E+02
  1.417E-02  2.115E-01  1.013E+05 -5.947E-01 -1.722E+00  3.000E+02  2.954E+02
  1.417E-02  2.178E-01  1.013E+05 -5.261E-01 -1.532E+00  3.000E+02  2.951E+02
  1.417E-02  2.241E-01  1.013E+05 -4.638E-01 -1.361E+00  3.000E+02  2.948E+02
  1.417E-02  2.304E-01  1.013E+05 -4.077E-01 -1.208E+00  3.000E+02  2.946E+02
  1.417E-02  2.367E-01  1.013E+05 -3.576E-01 -1.072E+00  3.000E+02  2.944E+02
  1.417E-02  2.430E-01  1.013E+05 -3.131E-01 -9.506E-01  3.000E+02  2.942E+02
  1.417E-02  2.493E-01  1.013E+05 -2.737E-01 -8.427E-01  3.000E+02  2.940E+02
  1.417E-02  2.557E-01  1.013E+05 -2.391E-01 -7.469E-01  3.000E+02  2.939E+02
  1.417E-02  2.620E-01  1.013E+05 -2.088E-01 -6.619E-01  3.000E+02  2.938E+02
  1.417E-02  2.683E-01  1.013E+05 -1.823E-01 -5.864E-01  3.000E+02  2.937E+02
  1.417E-02  2.746E-01  1.013E+05 -1.591E-01 -5.196E-01  3.000E+02  2.936E+02
  1.417E-02  2.809E-01  1.013E+05 -1.389E-01 -4.603E-01  3.000E+02  2.935E+02
  1.417E-02  2.872E-01  1.013E+05 -1.213E-01 -4.077E-01  3.000E+02  2.935E+02
  1.417E-02  2.935E-01  1.013E+05 -1.060E-01 -3.611E-01  3.000E+02  2.934E+02
  1.417E-02  2.998E-01  1.013E+05 -9.274E-02 -3.198E-01  3.000E+02  2.934E+02
  1.417E-02  3.062E-01  1.013E+05 -8.118E-02 -2.831E-01  3.000E+02  2.933E+02
  1.417E-02  3.125E-01  1.013E+05 -7.113E-02 -2.505E-01  3.000E+02  2.933E+02
  1.417E-02  3.188E-01  1.013E+05 -6.238E-02 -2.216E-01  3.000E+02  2.933E+02
  1.417E-02  3.251E-01  1.013E+05 -5.477E-02 -1.959E-01  3.000E+02  2.932E+02
  1.417E-02  3.314E-01  1.013E+05 -4.813E-02 -1.731E-01  3.000E+02  2.932E+02
  1.417E-02  3.377E-01  1.013E+05 -4.235E-02 -1.528E-01  3.000E+02  2.932E+02
  1.417E-02  3.440E-01  1.013E+05 -3.729E-02 -1.347E-01  3.000E+02  2.932E+02
  1.417E-02  3.503E-01  1.013E+05 -3.288E-02 -1.186E-01  3.000E+02  2.931E+02
  1.417E-02  3.567E-01  1.013E+05 -2.901E-02 -1.043E-01  3.000E+02  2.931E+02
  1.417E-02  3.630E-01  1.013E+05 -2.562E-02 -9.150E-02  3.000E+02  2.931E+02
  1.417E-02  3.693E-01  1.013E+05 -2.264E-02 -8.013E-02  3.000E+02  2.931E+02
  1.417E-02  3.756E-01  1.013E+05 -2.002E-02 -6.999E-02  3.000E+02  2.931E+02
  1.417E-02  3.819E-01  1.013E+05 -1.770E-02 -6.095E-02  3.000E+02  2.931E+02
  1.417E-02  3.882E-01  1.013E+05 -1.567E-02 -5.290E-02  3.000E+02  2.931E+02
  1.417E-02  3.945E-01  1.013E+05 -1.386E-02 -4.572E-02  3.000E+02  2.931E+02
  1.417E-02  4.008E-01  1.013E+05 -1.226E-02 -3.932E-02  3.000E+02  2.931E+02
  1.417E-02  4.072E-01  1.013E+05 -1.084E-02 -3.362E-02  3.000E+02  2.930E+02
  1.417E-02  4.135E-01  1.013E+05 -9.578E-03 -2.855E-02  3.000E+02  2.930E+02
  1.417E-02  4.198E-01  1.013E+05 -8.451E-03 -2.404E-02  3.000E+02  2.930E+02
  1.417E-02  4.261E-01  1.013E+05 -7.445E-03 -2.002E-02  3.000E+02  2.930E+02
  1.417E-02  4.324E-01  1.013E+05 -6.545E-03 -1.645E-02  3.000E+02  2.930E+02
  1.417E-02  4.387E-01  1.013E+05 -5.740E-03 -1.328E-02  3.000E+02  2.930E+02
  1.417E-02  4.450E-01  1.013E+05 -5.020E-03 -1.046E-02  3.000E+02  2.930E+02
  1.417E-02  4.513E-01  1.013E+05 -4.378E-03 -7.950E-03  3.000E+02  2.930E+02
  1.417E-02  4.577E-01  1.013E+05 -3.809E-03 -5.719E-03  3.000E+02  2.930E+02
  1.417E-02  4.640E-01  1.013E+05 -3.310E-03 -3.727E-03  3.000E+02  2.930E+02
  1.417E-02  4.703E-01  1.013E+05 -2.880E-03 -1.942E-03  3.000E+02  2.930E+02
  1.417E-02  4.766E-01  1.013E+05 -2.520E-03 -3.357E-04  3.000E+02  2.930E+02
  1.417E-02  4.829E-01  1.013E+05 -2.231E-03  1.119E-03  3.000E+02  2.930E+02
  1.417E-02  4.892E-01  1.013E+05 -2.017E-03  2.452E-03  3.000E+02  2.930E+02
  1.417E-02  4.955E-01  1.013E+05 -1.879E-03  3.792E-03  3.000E+02  2.930E+02
  1.417E-02  5.018E-01  1.013E+05 -1.812E-03  6.111E-03  3.000E+02  2.930E+02
  1.417E-02  5.050E-01  1.013E+05 -1.812E-03  6.111E-03  3.000E+02  2.930E+02
  4.252E-02  0.000E+00  1.013E+05  0.000E+00  0.000E+00  3.000E+02  3.053E+02
  4.252E-02  3.156E-03  1.013E+05  7.638E-01  1.065E-01  3.000E+02  3.053E+02
  4.252E-02  9.469E-03  1.013E+05  1.789E+00  6.286E-02  3.000E+02  3.057E+02
  4.252E-02  1.578E-02  1.013E+05  2.469E+00 -4.383E-02  3.000E+02  3.064E+02
  4.252E-02  2.209E-02  1.013E+05  2.909E+00 -1.813E-01  3.000E+02  3.074E+02
  4.252E-02  2.841E-02  1.013E+05  3.186E+00 -3.157E-01  3.000E+02  3.089E+02
  4.252E-02  3.472E-02  1.013E+05  3.347E+00 -4.319E-01  3.000E+02  3.108E+02
  4.252E-02  4.103E-02  1.013E+05  3.424E+00 -5.213E-01  3.000E+02  3.133E+02
  4.252E-02  4.734E-02  1.013E+05  3.434E+00 -5.779E-01  3.000E+02  3.164E+02
  4.252E-02  5.366E-02  1.013E+05  3.381E+00 -5.966E-01  3.000E+02  3.202E+02
  4.252E-02  5.997E-02  1.013E+05  3.265E+00 -5.717E-01  3.000E+02  3.250E+02
  4.252E-02  6.628E-02  1.013E+05  3.080E+00 -4.971E-01  3.000E+02  3.308E+02
  4.252E-02  7.259E-02  1.013E+05  2.817E+00 -3.650E-01  3.000E+02  3.379E+02
  4.252E-02  7.891E-02  1.013E+05  2.471E+00 -1.663E-01  3.000E+02  3.464E+02
  4.252E-02  8.522E-02  1.013E+05  2.037E+00  1.104E-01  3.000E+02  3.567E+02
  4.252E-02  9.153E-02  1.013E+05  1.521E+00  4.775E-01  3.000E+02  3.691E+02
  4.252E-02  9.784E-02  1.013E+05  9.395E-01  9.358E-01  3.000E+02  3.837E+02
  4.252E-02  1.042E-01  1.013E+05  3.228E-01  1.378E+00  3.000E+02  4.008E+02
  4.252E-02  1.105E-01  1.013E+05 -2.872E-01  8.742E-01  3.000E+02  3.835E+02
  4.252E-02  1.168E-01  1.013E+05 -8.489E-01  3.535E-01  3.000E+02  3.687E+02
  4.252E-02  1.231E-01  1.013E+05 -1.332E+00 -7.715E-02  3.000E+02  3.562E+02
  4.252E-02  1.294E-01  1.013E+05 -1.720E+00 -4.193E-01  3.000E+02  3.457E+02
  4.252E-02  1.357E-01  1.013E+05 -2.010E+00 -6.861E-01  3.000E+02  3.370E+02
  4.252E-02  1.420E-01  1.013E+05 -2.205E+00 -8.894E-01  3.000E+02  3.297E+02
  4.252E-02  1.483E-01  1.013E+05 -2.316E+00 -1.039E+00  3.000E+02  3.237E+02
  4.252E-02  1.547E-01  1.013E+05 -2.356E+00 -1.145E+00  3.000E+02  3.187E+02
  4.252E-02  1.610E-01  1.013E+05 -2.338E+00 -1.212E+00  3.000E+02  3.145E+02
  4.252E-02  1.673E-01  1.013E+05 -2.275E+00 -1.249E+00  3.000E+02  3.111E+02
  4.252E-02  1.736E-01  1.013E+05 -2.179E+00 -1.260E+00  3.000E+02  3.082E+02
  4.252E-02  1.799E-01  1.013E+05 -2.060E+00 -1.250E+00  3.000E+02  3.059E+02
  4.252E-02  1.862E-01  1.013E+05 -1.928E+00 -1.224E+00  3.000E+02  3.039E+02
  4.252E-02  1.925E-01  1.013E+05 -1.788E+00 -1.186E+00  3.000E+02  3.023E+02
  4.252E-02  1.988E-01  1.013E+05 -1.645E+00 -1.138E+00  3.000E+02  3.009E+02
  4.252E-02  2.052E-01  1.013E+05 -1.505E+00 -1.083E+00  3.000E+02  2.997E+02
  4.252E-02  2.115E-01  1.013E+05 -1.370E+00 -1.024E+00  3.000E+02  2.988E+02
  4.252E-02  2.178E-01  1.013E+05 -1.242E+00 -9.624E-01  3.000E+02  2.980E+02
  4.252E-02  2.241E-01  1.013E+05 -1.122E+00 -8.998E-01  3.000E+02  2.973E+02
  4.252E-02  2.304E-01  1.013E+05 -1.010E+00 -8.375E-01  3.000E+02  2.967E+02
  4.252E-02  2.367E-01  1.013E+05 -9.076E-01 -7.764E-01  3.000E+02  2.962E+02
  4.252E-02  2.430E-01  1.013E+05 -8.139E-01 -7.171E-01  3.000E+02  2.958E+02
  4.252E-02  2.493E-01  1.013E+05 -7.289E-01 -6.602E-01  3.000E+02  2.954E+02
  4.252E-02  2.557E-01  1.013E+05 -6.520E-01 -6.060E-01  3.000E+02  2.951E+02
  4.252E-02  2.620E-01  1.013E+05 -5.828E-01 -5.548E-01  3.000E+02  2.948E+02
  4.252E-02  2.683E-01  1.013E+05 -5.207E-01 -5.066E-01  3.000E+02  2.946E+02
  4.252E-02  2.746E-01  1.013E+05 -4.651E-01 -4.616E-01  3.000E+02  2.944E+02
  4.252E-02  2.809E-01  1.013E+05 -4.154E-01 -4.196E-01  3.000E+02  2.942E+02
  4.252E-02  2.872E-01  1.013E+05 -3.710E-01 -3.807E-01  3.000E+02  2.941E+02
  4.252E-02  2.935E-01  1.013E+05 -3.314E-01 -3.447E-01  3.000E+02  2.940E+02
  4.252E-02  2.998E-01  1.013E+05 -2.962E-01 -3.116E-01  3.000E+02  2.938E+02
  4.252E-02  3.062E-01  1.013E+05 -2.648E-01 -2.811E-01  3.000E+02  2.937E+02
  4.252E-02  3.125E-01  1.013E+05 -2.368E-01 -2.531E-01  3.000E+02  2.937E+02
  4.252E-02  3.188E-01  1.013E+05 -2.119E-01 -2.274E-01  3.000E+02  2.936E+02
  4.252E-02  3.251E-01  1.013E+05 -1.897E-01 -2.040E-01  3.000E+02  2.935E+02
  4.252E-02  3.314E-01  1.013E+05 -1.699E-01 -1.826E-01  3.000E+02  2.935E+02
  4.252E-02  3.377E-01  1.013E+05 -1.523E-01 -1.631E-01  3.000E+02  2.934E+02
  4.252E-02  3.440E-01  1.013E+05 -1.365E-01 -1.454E-01  3.000E+02  2.934E+02
  4.252E-02  3.503E-01  1.013E+05 -1.225E-01 -1.292E-01  3.000E+02  2.933E+02
  4.252E-02  3.567E-01  1.013E+05 -1.099E-01 -1.146E-01  3.000E+02  2.933E+02
  4.252E-02  3.630E-01  1.013E+05 -9.864E-02 -1.013E-01  3.000E+02  2.933E+02
  4.252E-02  3.693E-01  1.013E+05 -8.855E-02 -8.928E-02  3.000E+02  2.932E+02
  4.252E-02  3.756E-01  1.013E+05 -7.950E-02 -7.839E-02  3.000E+02  2.932E+02
  4.252E-02  3.819E-01  1.013E+05 -7.136E-02 -6.855E-02  3.000E+02  2.932E+02
  4.252E-02  3.882E-01  1.013E+05 -6.404E-02 -5.966E-02  3.000E+02  2.932E+02
  4.252E-02  3.945E-01  1.013E+05 -5.744E-02 -5.164E-02  3.000E+02  2.931E+02
  4.252E-02  4.008E-01  1.013E+05 -5.148E-02 -4.442E-02  3.000E+02  2.931E+02
  4.252E-02  4.072E-01  1.013E+05 -4.609E-02 -3.791E-02  3.000E+02  2.931E+02
  4.252E-02  4.135E-01  1.013E+05 -4.121E-02 -3.206E-02  3.000E+02  2.931E+02
  4.252E-02  4.198E-01  1.013E+05 -3.678E-02 -2.681E-02  3.000E+02  2.931E+02
  4.252E-02  4.261E-01  1.013E+05 -3.275E-02 -2.210E-02  3.000E+02  2.931E+02
  4.252E-02  4.324E-01  1.013E+05 -2.908E-02 -1.787E-02  3.000E+02  2.931E+02
  4.252E-02  4.387E-01  1.013E+05 -2.573E-02 -1.409E-02  3.000E+02  2.931E+02
  4.252E-02  4.450E-01  1.013E+05 -2.268E-02 -1.070E-02  3.000E+02  2.931E+02
  4.252E-02  4.513E-01  1.013E+05 -1.989E-02 -7.676E-03  3.000E+02  2.930E+02
  4.252E-02  4.577E-01  1.013E+05 -1.737E-02 -4.966E-03  3.000E+02  2.930E+02
  4.252E-02  4.640E-01  1.013E+05 -1.508E-02 -2.537E-03  3.000E+02  2.930E+02
  4.252E-02  4.703E-01  1.013E+05 -1.304E-02 -3.577E-04  3.000E+02  2.930E+02
  4.252E-02  4.766E-01  1.013E+05 -1.125E-02  1.600E-03  3.000E+02  2.930E+02
  4.252E-02  4.829E-01  1.013E+05 -9.729E-03  3.357E-03  3.000E+02  2.930E+02
  4.252E-02  4.892E-01  1.013E+05 -8.512E-03  4.942E-03  3.000E+02  2.930E+02
  4.252E-02  4.955E-01  1.013E+05 -7.645E-03  6.476E-03  3.000E+02  2.930E+02
  4.252E-02  5.018E-01  1.013E+05 -7.186E-03  8.866E-03  3.000E+02  2.930E+02
  4.252E-02  5.050E-01  1.013E+05 -7.186E-03  8.866E-03  3.000E+02  2.930E+02
  7.087E-02  0.000E+00  1.013E+05  0.000E+00  0.000E+00  3.000E+02  3.094E+02
  7.087E-02  3.156E-03  1.013E+05  6.889E-01  1.991E-01  3.000E+02  3.094E+02
  7.087E-02  9.469E-03  1.013E+05  1.652E+00  3.180E-01  3.000E+02  3.098E+02
  7.087E-02  1.578E-02  1.013E+05  2.309E+00  4.446E-01  3.000E+02  3.107E+02
  7.087E-02  2.209E-02  1.013E+05  2.740E+00  5.861E-01  3.000E+02  3.120E+02
  7.087E-02  2.841E-02  1.013E+05  3.006E+00  7.627E-01  3.000E+02  3.139E+02
  7.087E-02  3.472E-02  1.013E+05  3.146E+00  9.767E-01  3.000E+02  3.163E+02
  7.087E-02  4.103E-02  1.013E+05  3.191E+00  1.227E+00  3.000E+02  3.193E+02
  7.087E-02  4.734E-02  1.013E+05  3.159E+00  1.512E+00  3.000E+02  3.231E+02
  7.087E-02  5.366E-02  1.013E+05  3.061E+00  1.830E+00  3.000E+02  3.278E+02
  7.087E-02  5.997E-02  1.013E+05  2.904E+00  2.180E+00  3.000E+02  3.334E+02
  7.087E-02  6.628E-02  1.013E+05  2.691E+00  2.562E+00  3.000E+02  3.401E+02
  7.087E-02  7.259E-02  1.013E+05  2.425E+00  2.978E+00  3.000E+02  3.481E+02
  7.087E-02  7.891E-02  1.013E+05  2.109E+00  3.429E+00  3.000E+02  3.576E+02
  7.087E-02  8.522E-02  1.013E+05  1.746E+00  3.919E+00  3.000E+02  3.688E+02
  7.087E-02  9.153E-02  1.013E+05  1.345E+00  4.453E+00  3.000E+02  3.819E+02
  7.087E-02  9.784E-02  1.013E+05  9.177E-01  5.027E+00  3.000E+02  3.970E+02
  7.087E-02  1.042E-01  1.013E+05  4.790E-01  5.529E+00  3.000E+02  4.143E+02
  7.087E-02  1.105E-01  1.013E+05  4.666E-02  5.026E+00  3.000E+02  3.968E+02
  7.087E-02  1.168E-01  1.013E+05 -3.619E-01  4.451E+00  3.000E+02  3.815E+02
  7.087E-02  1.231E-01  1.013E+05 -7.319E-01  3.917E+00  3.000E+02  3.682E+02
  7.087E-02  1.294E-01  1.013E+05 -1.053E+00  3.429E+00  3.000E+02  3.567E+02
  7.087E-02  1.357E-01  1.013E+05 -1.319E+00  2.984E+00  3.000E+02  3.470E+02
  7.087E-02  1.420E-01  1.013E+05 -1.528E+00  2.577E+00  3.000E+02  3.387E+02
  7.087E-02  1.483E-01  1.013E+05 -1.683E+00  2.206E+00  3.000E+02  3.316E+02
  7.087E-02  1.547E-01  1.013E+05 -1.785E+00  1.871E+00  3.000E+02  3.257E+02
  7.087E-02  1.610E-01  1.013E+05 -1.843E+00  1.569E+00  3.000E+02  3.207E+02
  7.087E-02  1.673E-01  1.013E+05 -1.860E+00  1.301E+00  3.000E+02  3.164E+02
  7.087E-02  1.736E-01  1.013E+05 -1.846E+00  1.065E+00  3.000E+02  3.129E+02
  7.087E-02  1.799E-01  1.013E+05 -1.805E+00  8.588E-01  3.000E+02  3.099E+02
  7.087E-02  1.862E-01  1.013E+05 -1.743E+00  6.807E-01  3.000E+02  3.074E+02
  7.087E-02  1.925E-01  1.013E+05 -1.667E+00  5.283E-01  3.000E+02  3.052E+02
  7.087E-02  1.988E-01  1.013E+05 -1.581E+00  3.994E-01  3.000E+02  3.035E+02
  7.087E-02  2.052E-01  1.013E+05 -1.488E+00  2.913E-01  3.000E+02  3.019E+02
  7.087E-02  2.115E-01  1.013E+05 -1.392E+00  2.018E-01  3.000E+02  3.007E+02
  7.087E-02  2.178E-01  1.013E+05 -1.295E+00  1.285E-01  3.000E+02  2.996E+02
  7.087E-02  2.241E-01  1.013E+05 -1.200E+00  6.933E-02  3.000E+02  2.987E+02
  7.087E-02  2.304E-01  1.013E+05 -1.107E+00  2.224E-02  3.000E+02  2.979E+02
  7.087E-02  2.367E-01  1.013E+05 -1.018E+00 -1.455E-02  3.000E+02  2.972E+02
  7.087E-02  2.430E-01  1.013E+05 -9.338E-01 -4.267E-02  3.000E+02  2.967E+02
  7.087E-02  2.493E-01  1.013E+05 -8.543E-01 -6.352E-02  3.000E+02  2.962E+02
  7.087E-02  2.557E-01  1.013E+05 -7.801E-01 -7.837E-02  3.000E+02  2.958E+02
  7.087E-02  2.620E-01  1.013E+05 -7.111E-01 -8.829E-02  3.000E+02  2.954E+02
  7.087E-02  2.683E-01  1.013E+05 -6.473E-01 -9.422E-02  3.000E+02  2.951E+02
  7.087E-02  2.746E-01  1.013E+05 -5.885E-01 -9.696E-02  3.000E+02  2.949E+02
  7.087E-02  2.809E-01  1.013E+05 -5.346E-01 -9.717E-02  3.000E+02  2.946E+02
  7.087E-02  2.872E-01  1.013E+05 -4.852E-01 -9.542E-02  3.000E+02  2.944E+02
  7.087E-02  2.935E-01  1.013E+05 -4.401E-01 -9.218E-02  3.000E+02  2.943E+02
  7.087E-02  2.998E-01  1.013E+05 -3.990E-01 -8.784E-02  3.000E+02  2.941E+02
  7.087E-02  3.062E-01  1.013E+05 -3.616E-01 -8.272E-02  3.000E+02  2.940E+02
  7.087E-02  3.125E-01  1.013E+05 -3.276E-01 -7.708E-02  3.000E+02  2.939E+02
  7.087E-02  3.188E-01  1.013E+05 -2.967E-01 -7.113E-02  3.000E+02  2.938E+02
  7.087E-02  3.251E-01  1.013E+05 -2.686E-01 -6.503E-02  3.000E+02  2.937E+02
  7.087E-02  3.314E-01  1.013E+05 -2.432E-01 -5.891E-02  3.000E+02  2.936E+02
  7.087E-02  3.377E-01  1.013E+05 -2.201E-01 -5.288E-02  3.000E+02  2.935E+02
  7.087E-02  3.440E-01  1.013E+05 -1.992E-01 -4.702E-02  3.000E+02  2.935E+02
  7.087E-02  3.503E-01  1.013E+05 -1.802E-01 -4.136E-02  3.000E+02  2.934E+02
  7.087E-02  3.567E-01  1.013E+05 -1.630E-01 -3.597E-02  3.000E+02  2.934E+02
  7.087E-02  3.630E-01  1.013E+05 -1.474E-01 -3.086E-02  3.000E+02  2.933E+02
  7.087E-02  3.693E-01  1.013E+05 -1.333E-01 -2.605E-02  3.000E+02  2.933E+02
  7.087E-02  3.756E-01  1.013E+05 -1.204E-01 -2.155E-02  3.000E+02  2.933E+02
  7.087E-02  3.819E-01  1.013E+05 -1.087E-01 -1.735E-02  3.000E+02  2.932E+02
  7.087E-02  3.882E-01  1.013E+05 -9.810E-02 -1.345E-02  3.000E+02  2.932E+02
  7.087E-02  3.945E-01  1.013E+05 -8.843E-02 -9.854E-03  3.000E+02  2.932E+02
  7.087E-02  4.008E-01  1.013E+05 -7.962E-02 -6.535E-03  3.000E+02  2.932E+02
  7.087E-02  4.072E-01  1.013E+05 -7.158E-02 -3.486E-03  3.000E+02  2.931E+02
  7.087E-02  4.135E-01  1.013E+05 -6.425E-02 -6.898E-04  3.000E+02  2.931E+02
  7.087E-02  4.198E-01  1.013E+05 -5.754E-02  1.869E-03  3.000E+02  2.931E+02
  7.087E-02  4.261E-01  1.013E+05 -5.140E-02  4.208E-03  3.000E+02  2.931E+02
  7.087E-02  4.324E-01  1.013E+05 -4.577E-02  6.345E-03  3.000E+02  2.931E+02
  7.087E-02  4.387E-01  1.013E+05 -4.061E-02  8.298E-03  3.000E+02  2.931E+02
  7.087E-02  4.450E-01  1.013E+05 -3.588E-02  1.009E-02  3.000E+02  2.931E+02
  7.087E-02  4.513E-01  1.013E+05 -3.154E-02  1.173E-02  3.000E+02  2.931E+02
  7.087E-02  4.577E-01  1.013E+05 -2.758E-02  1.324E-02  3.000E+02  2.931E+02
  7.087E-02  4.640E-01  1.013E+05 -2.399E-02  1.464E-02  3.000E+02  2.930E+02
  7.087E-02  4.703E-01  1.013E+05 -2.076E-02  1.595E-02  3.000E+02  2.930E+02
  7.087E-02  4.766E-01  1.013E+05 -1.791E-02  1.718E-02  3.000E+02  2.930E+02
  7.087E-02  4.829E-01  1.013E+05 -1.547E-02  1.834E-02  3.000E+02  2.930E+02
  7.087E-02  4.892E-01  1.013E+05 -1.350E-02  1.944E-02  3.000E+02  2.930E+02
  7.087E-02  4.955E-01  1.013E+05 -1.208E-02  2.064E-02  3.000E+02  2.930E+02
  7.087E-02  5.018E-01  1.013E+05 -1.131E-02  2.308E-02  3.000E+02  2.930E+02
  7.087E-02  5.050E-01  1.013E+05 -1.131E-02  2.308E-02  3.000E+02  2.930E+02
  9.922E-02  0.000E+00  1.013E+05  0.000E+00  0.000E+00  3.000E+02  3.114E+02
  9.922E-02  3.156E-03  1.013E+05  4.770E-01  2.340E-01  3.000E+02  3.114E+02
  9.922E-02  9.469E-03  1.013E+05  1.160E+00  4.086E-01  3.000E+02  3.119E+02
  9.922E-02  1.578E-02  1.013E+05  1.637E+00  6.206E-01  3.000E+02  3.128E+02
  9.922E-02  2.209E-02  1.013E+05  1.955E+00  8.686E-01  3.000E+02  3.142E+02
  9.922E-02  2.841E-02  1.013E+05  2.151E+00  1.167E+00  3.000E+02  3.162E+02
  9.922E-02  3.472E-02  1.013E+05  2.254E+00  1.510E+00  3.000E+02  3.188E+02
  9.922E-02  4.103E-02  1.013E+05  2.283E+00  1.892E+00  3.000E+02  3.221E+02
  9.922E-02  4.734E-02  1.013E+05  2.253E+00  2.305E+00  3.000E+02  3.261E+02
  9.922E-02  5.366E-02  1.013E+05  2.175E+00  2.743E+00  3.000E+02  3.310E+02
  9.922E-02  5.997E-02  1.013E+05  2.055E+00  3.204E+00  3.000E+02  3.368E+02
  9.922E-02  6.628E-02  1.013E+05  1.900E+00  3.684E+00  3.000E+02  3.439E+02
  9.922E-02  7.259E-02  1.013E+05  1.715E+00  4.184E+00  3.000E+02  3.522E+02
  9.922E-02  7.891E-02  1.013E+05  1.502E+00  4.706E+00  3.000E+02  3.619E+02
  9.922E-02  8.522E-02  1.013E+05  1.268E+00  5.254E+00  3.000E+02  3.733E+02
  9.922E-02  9.153E-02  1.013E+05  1.016E+00  5.837E+00  3.000E+02  3.866E+02
  9.922E-02  9.784E-02  1.013E+05  7.547E-01  6.451E+00  3.000E+02  4.018E+02
  9.922E-02  1.042E-01  1.013E+05  4.896E-01  6.986E+00  3.000E+02  4.191E+02
  9.922E-02  1.105E-01  1.013E+05  2.286E-01  6.511E+00  3.000E+02  4.015E+02
  9.922E-02  1.168E-01  1.013E+05 -2.106E-02  5.958E+00  3.000E+02  3.861E+02
  9.922E-02  1.231E-01  1.013E+05 -2.529E-01  5.439E+00  3.000E+02  3.726E+02
  9.922E-02  1.294E-01  1.013E+05 -4.619E-01  4.958E+00  3.000E+02  3.609E+02
  9.922E-02  1.357E-01  1.013E+05 -6.446E-01  4.508E+00  3.000E+02  3.509E+02
  9.922E-02  1.420E-01  1.013E+05 -7.991E-01  4.086E+00  3.000E+02  3.422E+02
  9.922E-02  1.483E-01  1.013E+05 -9.251E-01  3.687E+00  3.000E+02  3.349E+02
  9.922E-02  1.547E-01  1.013E+05 -1.023E+00  3.313E+00  3.000E+02  3.286E+02
  9.922E-02  1.610E-01  1.013E+05 -1.095E+00  2.964E+00  3.000E+02  3.233E+02
  9.922E-02  1.673E-01  1.013E+05 -1.144E+00  2.639E+00  3.000E+02  3.188E+02
  9.922E-02  1.736E-01  1.013E+05 -1.171E+00  2.339E+00  3.000E+02  3.149E+02
  9.922E-02  1.799E-01  1.013E+05 -1.179E+00  2.064E+00  3.000E+02  3.117E+02
  9.922E-02  1.862E-01  1.013E+05 -1.173E+00  1.814E+00  3.000E+02  3.090E+02
  9.922E-02  1.925E-01  1.013E+05 -1.153E+00  1.588E+00  3.000E+02  3.067E+02
  9.922E-02  1.988E-01  1.013E+05 -1.124E+00  1.386E+00  3.000E+02  3.047E+02
  9.922E-02  2.052E-01  1.013E+05 -1.086E+00  1.205E+00  3.000E+02  3.030E+02
  9.922E-02  2.115E-01  1.013E+05 -1.042E+00  1.045E+00  3.000E+02  3.016E+02
  9.922E-02  2.178E-01  1.013E+05 -9.949E-01  9.035E-01  3.000E+02  3.004E+02
  9.922E-02  2.241E-01  1.013E+05 -9.446E-01  7.795E-01  3.000E+02  2.994E+02
  9.922E-02  2.304E-01  1.013E+05 -8.929E-01  6.711E-01  3.000E+02  2.985E+02
  9.922E-02  2.367E-01  1.013E+05 -8.407E-01  5.768E-01  3.000E+02  2.978E+02
  9.922E-02  2.430E-01  1.013E+05 -7.889E-01  4.952E-01  3.000E+02  2.971E+02
  9.922E-02  2.493E-01  1.013E+05 -7.381E-01  4.247E-01  3.000E+02  2.966E+02
  9.922E-02  2.557E-01  1.013E+05 -6.887E-01  3.642E-01  3.000E+02  2.961E+02
  9.922E-02  2.620E-01  1.013E+05 -6.411E-01  3.123E-01  3.000E+02  2.957E+02
  9.922E-02  2.683E-01  1.013E+05 -5.956E-01  2.679E-01  3.000E+02  2.954E+02
  9.922E-02  2.746E-01  1.013E+05 -5.523E-01  2.302E-01  3.000E+02  2.951E+02
  9.922E-02  2.809E-01  1.013E+05 -5.114E-01  1.981E-01  3.000E+02  2.948E+02
  9.922E-02  2.872E-01  1.013E+05 -4.728E-01  1.710E-01  3.000E+02  2.946E+02
  9.922E-02  2.935E-01  1.013E+05 -4.365E-01  1.481E-01  3.000E+02  2.944E+02
  9.922E-02  2.998E-01  1.013E+05 -4.026E-01  1.287E-01  3.000E+02  2.942E+02
  9.922E-02  3.062E-01  1.013E+05 -3.709E-01  1.125E-01  3.000E+02  2.941E+02
  9.922E-02  3.125E-01  1.013E+05 -3.413E-01  9.885E-02  3.000E+02  2.940E+02
  9.922E-02  3.188E-01  1.013E+05 -3.139E-01  8.743E-02  3.000E+02  2.939E+02
  9.922E-02  3.251E-01  1.013E+05 -2.884E-01  7.790E-02  3.000E+02  2.938E+02
  9.922E-02  3.314E-01  1.013E+05 -2.647E-01  6.994E-02  3.000E+02  2.937E+02
  9.922E-02  3.377E-01  1.013E+05 -2.428E-01  6.331E-02  3.000E+02  2.936E+02