VARIABLES="XP","YP","P","U","V","TS","TF"
ZONE T="Zone 001"I=    62 J=    22 F=POINT
  0.000E+00  0.000E+00  3.559E+00  0.000E+00  0.000E+00  1.994E+00  1.992E+00
  0.000E+00  4.208E-03  3.559E+00  0.000E+00  0.000E+00  1.994E+00  1.992E+00
  0.000E+00  1.262E-02  3.499E+00  0.000E+00  0.000E+00  2.020E+00  1.993E+00
  0.000E+00  2.104E-02  3.439E+00  0.000E+00  0.000E+00  2.072E+00  1.994E+00
  0.000E+00  2.946E-02  3.379E+00  0.000E+00  0.000E+00  2.150E+00  1.996E+00
  0.000E+00  3.787E-02  3.319E+00  0.000E+00  0.000E+00  2.254E+00  1.999E+00
  0.000E+00  4.629E-02  3.259E+00  0.000E+00  0.000E+00  2.383E+00  2.003E+00
  0.000E+00  5.471E-02  3.200E+00  0.000E+00  0.000E+00  2.537E+00  2.010E+00
  0.000E+00  6.313E-02  3.140E+00  0.000E+00  0.000E+00  2.719E+00  2.019E+00
  0.000E+00  7.154E-02  3.080E+00  0.000E+00  0.000E+00  2.927E+00  2.030E+00
  0.000E+00  7.996E-02  3.020E+00  0.000E+00  0.000E+00  3.163E+00  2.044E+00
  0.000E+00  8.838E-02  2.960E+00  0.000E+00  0.000E+00  3.429E+00  2.064E+00
  0.000E+00  9.679E-02  2.901E+00  0.000E+00  0.000E+00  3.724E+00  2.187E+00
  0.000E+00  1.052E-01  2.841E+00  0.000E+00  0.000E+00  4.051E+00  4.879E+00
  0.000E+00  1.136E-01  2.781E+00  0.000E+00  0.000E+00  3.728E+00  4.863E+00
  0.000E+00  1.220E-01  2.721E+00  0.000E+00  0.000E+00  3.429E+00  4.844E+00
  0.000E+00  1.305E-01  2.661E+00  0.000E+00  0.000E+00  3.153E+00  4.823E+00
  0.000E+00  1.389E-01  2.602E+00  0.000E+00  0.000E+00  2.900E+00  4.798E+00
  0.000E+00  1.473E-01  2.542E+00  0.000E+00  0.000E+00  2.669E+00  4.772E+00
  0.000E+00  1.557E-01  2.482E+00  0.000E+00  0.000E+00  2.459E+00  4.743E+00
  0.000E+00  1.641E-01  2.422E+00  0.000E+00  0.000E+00  2.268E+00  4.712E+00
  0.000E+00  1.725E-01  2.362E+00  0.000E+00  0.000E+00  2.097E+00  4.680E+00
  0.000E+00  1.810E-01  2.303E+00  0.000E+00  0.000E+00  1.943E+00  4.646E+00
  0.000E+00  1.894E-01  2.243E+00  0.000E+00  0.000E+00  1.807E+00  4.611E+00
  0.000E+00  1.978E-01  2.183E+00  0.000E+00  0.000E+00  1.685E+00  4.575E+00
  0.000E+00  2.062E-01  2.123E+00  0.000E+00  0.000E+00  1.578E+00  4.538E+00
  0.000E+00  2.146E-01  2.063E+00  0.000E+00  0.000E+00  1.484E+00  4.501E+00
  0.000E+00  2.230E-01  2.004E+00  0.000E+00  0.000E+00  1.402E+00  4.463E+00
  0.000E+00  2.315E-01  1.944E+00  0.000E+00  0.000E+00  1.330E+00  4.425E+00
  0.000E+00  2.399E-01  1.884E+00  0.000E+00  0.000E+00  1.267E+00  4.387E+00
  0.000E+00  2.483E-01  1.824E+00  0.000E+00  0.000E+00  1.213E+00  4.348E+00
  0.000E+00  2.567E-01  1.764E+00  0.000E+00  0.000E+00  1.166E+00  4.309E+00
  0.000E+00  2.651E-01  1.705E+00  0.000E+00  0.000E+00  1.126E+00  4.271E+00
  0.000E+00  2.735E-01  1.645E+00  0.000E+00  0.000E+00  1.091E+00  4.232E+00
  0.000E+00  2.820E-01  1.585E+00  0.000E+00  0.000E+00  1.061E+00  4.193E+00
  0.000E+00  2.904E-01  1.525E+00  0.000E+00  0.000E+00  1.035E+00  4.155E+00
  0.000E+00  2.988E-01  1.465E+00  0.000E+00  0.000E+00  1.012E+00  4.117E+00
  0.000E+00  3.072E-01  1.406E+00  0.000E+00  0.000E+00  9.925E-01  4.079E+00
  0.000E+00  3.156E-01  1.346E+00  0.000E+00  0.000E+00  9.753E-01  4.042E+00
  0.000E+00  3.240E-01  1.286E+00  0.000E+00  0.000E+00  9.601E-01  4.004E+00
  0.000E+00  3.325E-01  1.226E+00  0.000E+00  0.000E+00  9.465E-01  3.967E+00
  0.000E+00  3.409E-01  1.166E+00  0.000E+00  0.000E+00  9.344E-01  3.930E+00
  0.000E+00  3.493E-01  1.107E+00  0.000E+00  0.000E+00  9.234E-01  3.894E+00
  0.000E+00  3.577E-01  1.047E+00  0.000E+00  0.000E+00  9.133E-01  3.858E+00
  0.000E+00  3.661E-01  9.869E-01  0.000E+00  0.000E+00  9.040E-01  3.822E+00
  0.000E+00  3.745E-01  9.271E-01  0.000E+00  0.000E+00  8.953E-01  3.787E+00
  0.000E+00  3.830E-01  8.673E-01  0.000E+00  0.000E+00  8.872E-01  3.752E+00
  0.000E+00  3.914E-01  8.075E-01  0.000E+00  0.000E+00  8.797E-01  3.717E+00
  0.000E+00  3.998E-01  7.477E-01  0.000E+00  0.000E+00  8.726E-01  3.683E+00
  0.000E+00  4.082E-01  6.879E-01  0.000E+00  0.000E+00  8.660E-01  3.649E+00
  0.000E+00  4.166E-01  6.281E-01  0.000E+00  0.000E+00  8.601E-01  3.615E+00
  0.000E+00  4.250E-01  5.683E-01  0.000E+00  0.000E+00  8.548E-01  3.582E+00
  0.000E+00  4.335E-01  5.085E-01  0.000E+00  0.000E+00  8.503E-01  3.549E+00
  0.000E+00  4.419E-01  4.487E-01  0.000E+00  0.000E+00  8.468E-01  3.516E+00
  0.000E+00  4.503E-01  3.889E-01  0.000E+00  0.000E+00  8.444E-01  3.484E+00
  0.000E+00  4.587E-01  3.291E-01  0.000E+00  0.000E+00  8.431E-01  3.452E+00
  0.000E+00  4.671E-01  2.693E-01  0.000E+00  0.000E+00  8.429E-01  3.421E+00
  0.000E+00  4.755E-01  2.095E-01  0.000E+00  0.000E+00  8.435E-01  3.389E+00
  0.000E+00  4.840E-01  1.497E-01  0.000E+00  0.000E+00  8.447E-01  3.359E+00
  0.000E+00  4.924E-01  8.981E-02  0.000E+00  0.000E+00  8.459E-01  3.328E+00
  0.000E+00  5.008E-01  2.993E-02  0.000E+00  0.000E+00  8.466E-01  3.300E+00
  0.000E+00  5.050E-01  2.993E-02  0.000E+00  0.000E+00  8.466E-01  3.300E+00
  4.000E-03  0.000E+00  3.589E+00  3.317E-04  6.500E-02  1.994E+00  1.992E+00
  4.000E-03  4.208E-03  3.559E+00  3.317E-04  6.456E-02  1.994E+00  1.992E+00
  4.000E-03  1.262E-02  3.499E+00  1.822E-04  6.445E-02  2.020E+00  1.993E+00
  4.000E-03  2.104E-02  3.439E+00  8.744E-05  6.439E-02  2.072E+00  1.994E+00
  4.000E-03  2.946E-02  3.379E+00  4.388E-05  6.433E-02  2.150E+00  1.996E+00
  4.000E-03  3.787E-02  3.319E+00  2.313E-05  6.428E-02  2.254E+00  1.999E+00
  4.000E-03  4.629E-02  3.259E+00  1.278E-05  6.426E-02  2.383E+00  2.003E+00
  4.000E-03  5.471E-02  3.200E+00  7.421E-06  6.425E-02  2.537E+00  2.010E+00
  4.000E-03  6.313E-02  3.140E+00  4.470E-06  6.424E-02  2.719E+00  2.019E+00
  4.000E-03  7.154E-02  3.080E+00  2.855E-06  6.424E-02  2.927E+00  2.030E+00
  4.000E-03  7.996E-02  3.020E+00  1.906E-06  6.424E-02  3.163E+00  2.044E+00
  4.000E-03  8.838E-02  2.960E+00  1.247E-06  6.423E-02  3.429E+00  2.064E+00
  4.000E-03  9.679E-02  2.901E+00  8.241E-07  6.423E-02  3.724E+00  2.187E+00
  4.000E-03  1.052E-01  2.841E+00  6.230E-07  6.423E-02  4.051E+00  4.879E+00
  4.000E-03  1.136E-01  2.781E+00  4.075E-07  6.423E-02  3.728E+00  4.863E+00
  4.000E-03  1.220E-01  2.721E+00  3.083E-07  6.423E-02  3.429E+00  4.844E+00
  4.000E-03  1.305E-01  2.661E+00  2.419E-07  6.423E-02  3.153E+00  4.823E+00
  4.000E-03  1.389E-01  2.602E+00  1.138E-07  6.423E-02  2.900E+00  4.798E+00
  4.000E-03  1.473E-01  2.542E+00  1.503E-07  6.423E-02  2.669E+00  4.772E+00
  4.000E-03  1.557E-01  2.482E+00  6.086E-08  6.423E-02  2.459E+00  4.743E+00
  4.000E-03  1.641E-01  2.422E+00  2.848E-08  6.423E-02  2.268E+00  4.712E+00
  4.000E-03  1.725E-01  2.362E+00  1.169E-07  6.423E-02  2.097E+00  4.680E+00
  4.000E-03  1.810E-01  2.303E+00  5.765E-08  6.423E-02  1.943E+00  4.646E+00
  4.000E-03  1.894E-01  2.243E+00  2.103E-08  6.423E-02  1.807E+00  4.611E+00
  4.000E-03  1.978E-01  2.183E+00  8.496E-09  6.423E-02  1.685E+00  4.575E+00
  4.000E-03  2.062E-01  2.123E+00  4.755E-09  6.423E-02  1.578E+00  4.538E+00
  4.000E-03  2.146E-01  2.063E+00  3.143E-09  6.423E-02  1.484E+00  4.501E+00
  4.000E-03  2.230E-01  2.004E+00  3.475E-09  6.423E-02  1.402E+00  4.463E+00
  4.000E-03  2.315E-01  1.944E+00  1.552E-09  6.423E-02  1.330E+00  4.425E+00
  4.000E-03  2.399E-01  1.884E+00 -4.475E-08  6.423E-02  1.267E+00  4.387E+00
  4.000E-03  2.483E-01  1.824E+00 -1.367E-08  6.423E-02  1.213E+00  4.348E+00
  4.000E-03  2.567E-01  1.764E+00  1.447E-09  6.423E-02  1.166E+00  4.309E+00
  4.000E-03  2.651E-01  1.705E+00  7.800E-10  6.423E-02  1.126E+00  4.271E+00
  4.000E-03  2.735E-01  1.645E+00 -3.542E-09  6.423E-02  1.091E+00  4.232E+00
  4.000E-03  2.820E-01  1.585E+00 -1.596E-09  6.423E-02  1.061E+00  4.193E+00
  4.000E-03  2.904E-01  1.525E+00 -5.661E-10  6.423E-02  1.035E+00  4.155E+00
  4.000E-03  2.988E-01  1.465E+00 -1.854E-10  6.423E-02  1.012E+00  4.117E+00
  4.000E-03  3.072E-01  1.406E+00 -5.139E-11  6.423E-02  9.925E-01  4.079E+00
  4.000E-03  3.156E-01  1.346E+00 -3.206E-12  6.423E-02  9.753E-01  4.042E+00
  4.000E-03  3.240E-01  1.286E+00 -1.338E-11  6.423E-02  9.601E-01  4.004E+00
  4.000E-03  3.325E-01  1.226E+00  1.005E-11  6.423E-02  9.465E-01  3.967E+00
  4.000E-03  3.409E-01  1.166E+00 -9.585E-14  6.423E-02  9.344E-01  3.930E+00
  4.000E-03  3.493E-01  1.107E+00 -3.159E-11  6.423E-02  9.234E-01  3.894E+00
  4.000E-03  3.577E-01  1.047E+00 -2.267E-11  6.423E-02  9.133E-01  3.858E+00
  4.000E-03  3.661E-01  9.869E-01 -2.123E-12  6.423E-02  9.040E-01  3.822E+00
  4.000E-03  3.745E-01  9.271E-01  2.124E-11  6.423E-02  8.953E-01  3.787E+00
  4.000E-03  3.830E-01  8.673E-01  3.182E-11  6.423E-02  8.872E-01  3.752E+00
  4.000E-03  3.914E-01  8.075E-01  5.130E-11  6.423E-02  8.797E-01  3.717E+00
  4.000E-03  3.998E-01  7.477E-01  2.390E-11  6.423E-02  8.726E-01  3.683E+00
  4.000E-03  4.082E-01  6.879E-01  9.791E-11  6.423E-02  8.660E-01  3.649E+00
  4.000E-03  4.166E-01  6.281E-01  1.786E-10  6.423E-02  8.601E-01  3.615E+00
  4.000E-03  4.250E-01  5.683E-01  2.994E-10  6.423E-02  8.548E-01  3.582E+00
  4.000E-03  4.335E-01  5.085E-01  7.911E-10  6.423E-02  8.503E-01  3.549E+00
  4.000E-03  4.419E-01  4.487E-01  1.522E-09  6.423E-02  8.468E-01  3.516E+00
  4.000E-03  4.503E-01  3.889E-01  2.379E-09  6.423E-02  8.444E-01  3.484E+00
  4.000E-03  4.587E-01  3.291E-01  4.468E-09  6.423E-02  8.431E-01  3.452E+00
  4.000E-03  4.671E-01  2.693E-01  2.304E-08  6.423E-02  8.429E-01  3.421E+00
  4.000E-03  4.755E-01  2.095E-01  8.705E-08  6.423E-02  8.435E-01  3.389E+00
  4.000E-03  4.840E-01  1.497E-01  1.915E-07  6.425E-02  8.447E-01  3.359E+00
  4.000E-03  4.924E-01  8.981E-02  2.467E-07  6.427E-02  8.459E-01  3.328E+00
  4.000E-03  5.008E-01  2.993E-02  9.673E-08  6.428E-02  8.466E-01  3.300E+00
  4.000E-03  5.050E-01  0.000E+00  9.673E-08  6.428E-02  8.466E-01  3.300E+00
  1.200E-02  0.000E+00  3.589E+00  2.682E-04  6.500E-02  1.994E+00  1.993E+00
  1.200E-02  4.208E-03  3.559E+00  2.682E-04  6.495E-02  1.994E+00  1.993E+00
  1.200E-02  1.262E-02  3.499E+00  1.652E-04  6.503E-02  2.020E+00  1.993E+00
  1.200E-02  2.104E-02  3.439E+00  9.103E-05  6.509E-02  2.073E+00  1.994E+00
  1.200E-02  2.946E-02  3.379E+00  5.155E-05  6.509E-02  2.150E+00  1.996E+00
  1.200E-02  3.787E-02  3.319E+00  3.029E-05  6.506E-02  2.254E+00  1.999E+00
  1.200E-02  4.629E-02  3.259E+00  1.827E-05  6.505E-02  2.383E+00  2.003E+00
  1.200E-02  5.471E-02  3.200E+00  1.133E-05  6.504E-02  2.537E+00  2.010E+00
  1.200E-02  6.313E-02  3.140E+00  7.218E-06  6.504E-02  2.719E+00  2.018E+00
  1.200E-02  7.154E-02  3.080E+00  4.747E-06  6.503E-02  2.927E+00  2.029E+00
  1.200E-02  7.996E-02  3.020E+00  3.199E-06  6.503E-02  3.163E+00  2.043E+00
  1.200E-02  8.838E-02  2.960E+00  2.161E-06  6.503E-02  3.429E+00  2.064E+00
  1.200E-02  9.679E-02  2.901E+00  1.464E-06  6.503E-02  3.724E+00  2.185E+00
  1.200E-02  1.052E-01  2.841E+00  1.025E-06  6.503E-02  4.051E+00  4.848E+00
  1.200E-02  1.136E-01  2.781E+00  6.961E-07  6.503E-02  3.728E+00  4.835E+00
  1.200E-02  1.220E-01  2.721E+00  4.929E-07  6.503E-02  3.429E+00  4.819E+00
  1.200E-02  1.305E-01  2.661E+00  3.438E-07  6.503E-02  3.153E+00  4.800E+00
  1.200E-02  1.389E-01  2.602E+00  2.292E-07  6.503E-02  2.900E+00  4.778E+00
  1.200E-02  1.473E-01  2.542E+00  1.589E-07  6.503E-02  2.669E+00  4.753E+00
  1.200E-02  1.557E-01  2.482E+00  9.535E-08  6.503E-02  2.459E+00  4.726E+00
  1.200E-02  1.641E-01  2.422E+00  6.527E-08  6.503E-02  2.268E+00  4.697E+00
  1.200E-02  1.725E-01  2.362E+00  7.262E-08  6.503E-02  2.097E+00  4.666E+00
  1.200E-02  1.810E-01  2.303E+00  6.920E-08  6.503E-02  1.943E+00  4.634E+00
  1.200E-02  1.894E-01  2.243E+00  3.401E-08  6.503E-02  1.807E+00  4.600E+00
  1.200E-02  1.978E-01  2.183E+00  1.207E-08  6.503E-02  1.685E+00  4.565E+00
  1.200E-02  2.062E-01  2.123E+00  9.539E-09  6.503E-02  1.578E+00  4.529E+00
  1.200E-02  2.146E-01  2.063E+00  6.955E-09  6.503E-02  1.484E+00  4.493E+00
  1.200E-02  2.230E-01  2.004E+00  5.328E-09  6.503E-02  1.402E+00  4.456E+00
  1.200E-02  2.315E-01  1.944E+00  4.764E-09  6.503E-02  1.330E+00  4.418E+00
  1.200E-02  2.399E-01  1.884E+00  5.025E-09  6.503E-02  1.267E+00  4.380E+00
  1.200E-02  2.483E-01  1.824E+00  5.037E-09  6.503E-02  1.213E+00  4.342E+00
  1.200E-02  2.567E-01  1.764E+00  5.650E-09  6.503E-02  1.166E+00  4.304E+00
  1.200E-02  2.651E-01  1.705E+00  2.554E-09  6.503E-02  1.126E+00  4.266E+00
  1.200E-02  2.735E-01  1.645E+00 -1.309E-09  6.503E-02  1.091E+00  4.228E+00
  1.200E-02  2.820E-01  1.585E+00 -5.839E-10  6.503E-02  1.061E+00  4.190E+00
  1.200E-02  2.904E-01  1.525E+00 -1.028E-10  6.503E-02  1.035E+00  4.152E+00
  1.200E-02  2.988E-01  1.465E+00  1.448E-11  6.503E-02  1.012E+00  4.114E+00
  1.200E-02  3.072E-01  1.406E+00  5.644E-11  6.503E-02  9.926E-01  4.077E+00
  1.200E-02  3.156E-01  1.346E+00  9.735E-11  6.503E-02  9.754E-01  4.039E+00
  1.200E-02  3.240E-01  1.286E+00  7.218E-11  6.503E-02  9.601E-01  4.002E+00
  1.200E-02  3.325E-01  1.226E+00  3.588E-11  6.503E-02  9.466E-01  3.966E+00
  1.200E-02  3.409E-01  1.166E+00  5.993E-12  6.503E-02  9.344E-01  3.929E+00
  1.200E-02  3.493E-01  1.107E+00 -1.415E-11  6.503E-02  9.234E-01  3.893E+00
  1.200E-02  3.577E-01  1.047E+00 -3.052E-11  6.503E-02  9.133E-01  3.857E+00
  1.200E-02  3.661E-01  9.869E-01 -1.719E-11  6.503E-02  9.040E-01  3.822E+00
  1.200E-02  3.745E-01  9.271E-01  6.959E-11  6.503E-02  8.954E-01  3.786E+00
  1.200E-02  3.830E-01  8.673E-01  1.225E-10  6.503E-02  8.873E-01  3.751E+00
  1.200E-02  3.914E-01  8.075E-01  1.839E-10  6.503E-02  8.797E-01  3.717E+00
  1.200E-02  3.998E-01  7.477E-01  1.114E-11  6.503E-02  8.726E-01  3.683E+00
  1.200E-02  4.082E-01  6.879E-01  2.258E-10  6.503E-02  8.661E-01  3.649E+00
  1.200E-02  4.166E-01  6.281E-01  3.321E-10  6.503E-02  8.601E-01  3.615E+00
  1.200E-02  4.250E-01  5.683E-01  3.019E-10  6.503E-02  8.548E-01  3.582E+00
  1.200E-02  4.335E-01  5.085E-01  1.470E-09  6.503E-02  8.504E-01  3.549E+00
  1.200E-02  4.419E-01  4.487E-01  4.904E-09  6.503E-02  8.469E-01  3.516E+00
  1.200E-02  4.503E-01  3.889E-01  4.992E-09  6.503E-02  8.444E-01  3.484E+00
  1.200E-02  4.587E-01  3.291E-01  1.021E-08  6.503E-02  8.431E-01  3.453E+00
  1.200E-02  4.671E-01  2.693E-01  2.594E-08  6.503E-02  8.429E-01  3.421E+00
  1.200E-02  4.755E-01  2.095E-01  6.337E-08  6.503E-02  8.436E-01  3.390E+00
  1.200E-02  4.840E-01  1.497E-01  1.144E-07  6.504E-02  8.448E-01  3.359E+00
  1.200E-02  4.924E-01  8.981E-02  1.225E-07  6.506E-02  8.459E-01  3.329E+00
  1.200E-02  5.008E-01  2.993E-02  4.398E-08  6.508E-02  8.467E-01  3.300E+00
  1.200E-02  5.050E-01  0.000E+00  4.398E-08  6.508E-02  8.467E-01  3.300E+00
  2.000E-02  0.000E+00  3.588E+00  1.719E-04  6.500E-02  1.994E+00  1.993E+00
  2.000E-02  4.208E-03  3.559E+00  1.719E-04  6.491E-02  1.994E+00  1.993E+00
  2.000E-02  1.262E-02  3.499E+00  1.322E-04  6.498E-02  2.021E+00  1.993E+00
  2.000E-02  2.104E-02  3.439E+00  8.981E-05  6.505E-02  2.073E+00  1.994E+00
  2.000E-02  2.946E-02  3.379E+00  5.890E-05  6.507E-02  2.150E+00  1.996E+00
  2.000E-02  3.787E-02  3.319E+00  3.850E-05  6.505E-02  2.254E+00  1.999E+00
  2.000E-02  4.629E-02  3.259E+00  2.521E-05  6.505E-02  2.383E+00  2.003E+00
  2.000E-02  5.471E-02  3.200E+00  1.663E-05  6.504E-02  2.537E+00  2.010E+00
  2.000E-02  6.313E-02  3.140E+00  1.109E-05  6.504E-02  2.719E+00  2.018E+00
  2.000E-02  7.154E-02  3.080E+00  7.481E-06  6.504E-02  2.927E+00  2.029E+00
  2.000E-02  7.996E-02  3.020E+00  5.100E-06  6.503E-02  3.163E+00  2.043E+00
  2.000E-02  8.838E-02  2.960E+00  3.503E-06  6.503E-02  3.429E+00  2.064E+00
  2.000E-02  9.679E-02  2.901E+00  2.417E-06  6.503E-02  3.724E+00  2.185E+00
  2.000E-02  1.052E-01  2.841E+00  1.673E-06  6.503E-02  4.051E+00  4.846E+00
  2.000E-02  1.136E-01  2.781E+00  1.153E-06  6.503E-02  3.728E+00  4.833E+00
  2.000E-02  1.220E-01  2.721E+00  7.990E-07  6.503E-02  3.429E+00  4.816E+00
  2.000E-02  1.305E-01  2.661E+00  5.662E-07  6.503E-02  3.153E+00  4.796E+00
  2.000E-02  1.389E-01  2.602E+00  3.953E-07  6.503E-02  2.900E+00  4.773E+00
  2.000E-02  1.473E-01  2.542E+00  2.690E-07  6.503E-02  2.669E+00  4.748E+00
  2.000E-02  1.557E-01  2.482E+00  1.940E-07  6.503E-02  2.459E+00  4.721E+00
  2.000E-02  1.641E-01  2.422E+00  1.381E-07  6.503E-02  2.268E+00  4.691E+00
  2.000E-02  1.725E-01  2.362E+00  9.125E-08  6.503E-02  2.097E+00  4.660E+00
  2.000E-02  1.810E-01  2.303E+00  7.544E-08  6.503E-02  1.944E+00  4.628E+00
  2.000E-02  1.894E-01  2.243E+00  4.798E-08  6.503E-02  1.807E+00  4.594E+00
  2.000E-02  1.978E-01  2.183E+00  2.638E-08  6.503E-02  1.685E+00  4.559E+00
  2.000E-02  2.062E-01  2.123E+00  1.867E-08  6.503E-02  1.578E+00  4.524E+00
  2.000E-02  2.146E-01  2.063E+00  1.156E-08  6.503E-02  1.484E+00  4.487E+00
  2.000E-02  2.230E-01  2.004E+00  7.046E-09  6.503E-02  1.402E+00  4.450E+00
  2.000E-02  2.315E-01  1.944E+00  7.519E-09  6.503E-02  1.330E+00  4.413E+00
  2.000E-02  2.399E-01  1.884E+00  1.381E-08  6.503E-02  1.267E+00  4.375E+00
  2.000E-02  2.483E-01  1.824E+00  6.710E-09  6.503E-02  1.213E+00  4.338E+00
  2.000E-02  2.567E-01  1.764E+00  1.741E-10  6.503E-02  1.166E+00  4.300E+00
  2.000E-02  2.651E-01  1.705E+00  8.917E-10  6.503E-02  1.126E+00  4.262E+00
  2.000E-02  2.735E-01  1.645E+00  2.489E-09  6.503E-02  1.091E+00  4.224E+00
  2.000E-02  2.820E-01  1.585E+00  1.338E-09  6.503E-02  1.061E+00  4.186E+00
  2.000E-02  2.904E-01  1.525E+00  6.534E-10  6.503E-02  1.035E+00  4.148E+00
  2.000E-02  2.988E-01  1.465E+00  3.201E-10  6.503E-02  1.012E+00  4.110E+00
  2.000E-02  3.072E-01  1.406E+00  1.943E-10  6.503E-02  9.927E-01  4.073E+00
  2.000E-02  3.156E-01  1.346E+00  1.653E-10  6.503E-02  9.754E-01  4.036E+00
  2.000E-02  3.240E-01  1.286E+00  9.907E-11  6.503E-02  9.602E-01  3.999E+00
  2.000E-02  3.325E-01  1.226E+00  2.082E-11  6.503E-02  9.467E-01  3.962E+00
  2.000E-02  3.409E-01  1.166E+00 -2.318E-12  6.503E-02  9.345E-01  3.926E+00
  2.000E-02  3.493E-01  1.107E+00 -7.878E-12  6.503E-02  9.235E-01  3.890E+00
  2.000E-02  3.577E-01  1.047E+00  1.317E-11  6.503E-02  9.134E-01  3.854E+00
  2.000E-02  3.661E-01  9.869E-01  4.773E-11  6.503E-02  9.041E-01  3.819E+00
  2.000E-02  3.745E-01  9.271E-01  1.236E-10  6.503E-02  8.955E-01  3.784E+00
  2.000E-02  3.830E-01  8.673E-01  1.375E-10  6.503E-02  8.874E-01  3.749E+00
  2.000E-02  3.914E-01  8.075E-01  2.985E-10  6.503E-02  8.798E-01  3.715E+00
  2.000E-02  3.998E-01  7.477E-01 -4.526E-10  6.503E-02  8.727E-01  3.681E+00
  2.000E-02  4.082E-01  6.879E-01  2.579E-10  6.503E-02  8.662E-01  3.647E+00
  2.000E-02  4.166E-01  6.281E-01  3.234E-10  6.503E-02  8.602E-01  3.613E+00
  2.000E-02  4.250E-01  5.683E-01  2.924E-10  6.503E-02  8.549E-01  3.580E+00
  2.000E-02  4.335E-01  5.085E-01  1.213E-09  6.503E-02  8.505E-01  3.548E+00
  2.000E-02  4.419E-01  4.487E-01  5.213E-09  6.503E-02  8.469E-01  3.515E+00
  2.000E-02  4.503E-01  3.889E-01  7.965E-09  6.503E-02  8.445E-01  3.483E+00
  2.000E-02  4.587E-01  3.291E-01  1.452E-08  6.503E-02  8.432E-01  3.451E+00
  2.000E-02  4.671E-01  2.693E-01  2.822E-08  6.503E-02  8.430E-01  3.420E+00
  2.000E-02  4.755E-01  2.095E-01  4.924E-08  6.503E-02  8.437E-01  3.389E+00
  2.000E-02  4.840E-01  1.497E-01  6.737E-08  6.505E-02  8.448E-01  3.359E+00
  2.000E-02  4.924E-01  8.981E-02  5.543E-08  6.507E-02  8.460E-01  3.328E+00
  2.000E-02  5.008E-01  2.993E-02  1.677E-08  6.508E-02  8.468E-01  3.300E+00
  2.000E-02  5.050E-01  0.000E+00  1.677E-08  6.508E-02  8.468E-01  3.300E+00
  2.800E-02  0.000E+00  3.588E+00  1.244E-04  6.500E-02  1.994E+00  1.993E+00
  2.800E-02  4.208E-03  3.558E+00  1.244E-04  6.488E-02  1.994E+00  1.993E+00
  2.800E-02  1.262E-02  3.499E+00  1.063E-04  6.495E-02  2.021E+00  1.993E+00
  2.800E-02  2.104E-02  3.439E+00  8.057E-05  6.503E-02  2.073E+00  1.994E+00
  2.800E-02  2.946E-02  3.379E+00  5.729E-05  6.505E-02  2.150E+00  1.996E+00
  2.800E-02  3.787E-02  3.319E+00  3.977E-05  6.504E-02  2.254E+00  1.999E+00
  2.800E-02  4.629E-02  3.259E+00  2.738E-05  6.504E-02  2.383E+00  2.004E+00
  2.800E-02  5.471E-02  3.200E+00  1.880E-05  6.504E-02  2.538E+00  2.010E+00
  2.800E-02  6.313E-02  3.140E+00  1.293E-05  6.504E-02  2.719E+00  2.019E+00
  2.800E-02  7.154E-02  3.080E+00  8.923E-06  6.503E-02  2.927E+00  2.030E+00
  2.800E-02  7.996E-02  3.020E+00  6.167E-06  6.503E-02  3.163E+00  2.043E+00
  2.800E-02  8.838E-02  2.960E+00  4.283E-06  6.503E-02  3.429E+00  2.064E+00
  2.800E-02  9.679E-02  2.901E+00  3.000E-06  6.503E-02  3.724E+00  2.185E+00
  2.800E-02  1.052E-01  2.841E+00  2.081E-06  6.503E-02  4.051E+00  4.846E+00
  2.800E-02  1.136E-01  2.781E+00  1.449E-06  6.503E-02  3.728E+00  4.832E+00
  2.800E-02  1.220E-01  2.721E+00  1.002E-06  6.503E-02  3.429E+00  4.815E+00
  2.800E-02  1.305E-01  2.661E+00  7.070E-07  6.503E-02  3.153E+00  4.795E+00
  2.800E-02  1.389E-01  2.602E+00  5.029E-07  6.503E-02  2.900E+00  4.772E+00
  2.800E-02  1.473E-01  2.542E+00  3.530E-07  6.503E-02  2.669E+00  4.747E+00
  2.800E-02  1.557E-01  2.482E+00  2.603E-07  6.503E-02  2.459E+00  4.720E+00
  2.800E-02  1.641E-01  2.422E+00  1.788E-07  6.503E-02  2.268E+00  4.690E+00
  2.800E-02  1.725E-01  2.362E+00  1.045E-07  6.503E-02  2.097E+00  4.659E+00
  2.800E-02  1.810E-01  2.303E+00  6.374E-08  6.503E-02  1.944E+00  4.626E+00
  2.800E-02  1.894E-01  2.243E+00  5.057E-08  6.503E-02  1.807E+00  4.593E+00
  2.800E-02  1.978E-01  2.183E+00  5.547E-08  6.503E-02  1.685E+00  4.558E+00
  2.800E-02  2.062E-01  2.123E+00  3.328E-08  6.503E-02  1.578E+00  4.522E+00
  2.800E-02  2.146E-01  2.063E+00  1.495E-08  6.503E-02  1.484E+00  4.485E+00
  2.800E-02  2.230E-01  2.004E+00  1.006E-08  6.503E-02  1.402E+00  4.449E+00
  2.800E-02  2.315E-01  1.944E+00  8.042E-09  6.503E-02  1.330E+00  4.411E+00
  2.800E-02  2.399E-01  1.884E+00  7.343E-09  6.503E-02  1.267E+00  4.373E+00
  2.800E-02  2.483E-01  1.824E+00  4.809E-09  6.503E-02  1.213E+00  4.336E+00
  2.800E-02  2.567E-01  1.764E+00  2.559E-09  6.503E-02  1.166E+00  4.298E+00
  2.800E-02  2.651E-01  1.705E+00  2.018E-09  6.503E-02  1.126E+00  4.260E+00
  2.800E-02  2.735E-01  1.645E+00  1.843E-09  6.503E-02  1.091E+00  4.222E+00
  2.800E-02  2.820E-01  1.585E+00  1.199E-09  6.503E-02  1.061E+00  4.184E+00
  2.800E-02  2.904E-01  1.525E+00  6.786E-10  6.503E-02  1.035E+00  4.146E+00
  2.800E-02  2.988E-01  1.465E+00  4.068E-10  6.503E-02  1.012E+00  4.108E+00
  2.800E-02  3.072E-01  1.406E+00  2.636E-10  6.503E-02  9.928E-01  4.071E+00
  2.800E-02  3.156E-01  1.346E+00  1.787E-10  6.503E-02  9.755E-01  4.034E+00
  2.800E-02  3.240E-01  1.286E+00  8.045E-11  6.503E-02  9.603E-01  3.997E+00
  2.800E-02  3.325E-01  1.226E+00  3.223E-11  6.503E-02  9.468E-01  3.960E+00
  2.800E-02  3.409E-01  1.166E+00  1.310E-11  6.503E-02  9.346E-01  3.924E+00
  2.800E-02  3.493E-01  1.107E+00 -1.251E-11  6.503E-02  9.236E-01  3.888E+00
  2.800E-02  3.577E-01  1.047E+00  4.162E-11  6.503E-02  9.135E-01  3.853E+00
  2.800E-02  3.661E-01  9.869E-01  9.191E-11  6.503E-02  9.042E-01  3.817E+00
  2.800E-02  3.745E-01  9.271E-01  1.282E-10  6.503E-02  8.955E-01  3.782E+00
  2.800E-02  3.830E-01  8.673E-01  1.007E-10  6.503E-02  8.875E-01  3.747E+00
  2.800E-02  3.914E-01  8.075E-01  7.574E-10  6.503E-02  8.799E-01  3.713E+00
  2.800E-02  3.998E-01  7.477E-01  5.326E-10  6.503E-02  8.728E-01  3.679E+00
  2.800E-02  4.082E-01  6.879E-01  9.471E-10  6.503E-02  8.663E-01  3.645E+00
  2.800E-02  4.166E-01  6.281E-01  4.790E-10  6.503E-02  8.603E-01  3.612E+00
  2.800E-02  4.250E-01  5.683E-01  7.538E-10  6.503E-02  8.550E-01  3.579E+00
  2.800E-02  4.335E-01  5.085E-01  8.831E-10  6.503E-02  8.505E-01  3.546E+00
  2.800E-02  4.419E-01  4.487E-01  3.691E-09  6.503E-02  8.470E-01  3.514E+00
  2.800E-02  4.503E-01  3.889E-01  1.061E-08  6.503E-02  8.446E-01  3.482E+00
  2.800E-02  4.587E-01  3.291E-01  1.673E-08  6.503E-02  8.433E-01  3.450E+00
  2.800E-02  4.671E-01  2.693E-01  2.741E-08  6.503E-02  8.431E-01  3.419E+00
  2.800E-02  4.755E-01  2.095E-01  3.660E-08  6.503E-02  8.438E-01  3.388E+00
  2.800E-02  4.840E-01  1.497E-01  3.923E-08  6.505E-02  8.449E-01  3.357E+00
  2.800E-02  4.924E-01  8.981E-02  2.639E-08  6.507E-02  8.461E-01  3.327E+00
  2.800E-02  5.008E-01  2.993E-02  7.981E-09  6.508E-02  8.469E-01  3.299E+00
  2.800E-02  5.050E-01  0.000E+00  7.981E-09  6.508E-02  8.469E-01  3.299E+00
  3.600E-02  0.000E+00  3.588E+00  9.192E-05  6.500E-02  1.995E+00  1.993E+00
  3.600E-02  4.208E-03  3.558E+00  9.192E-05  6.487E-02  1.995E+00  1.993E+00
  3.600E-02  1.262E-02  3.499E+00  8.261E-05  6.494E-02  2.021E+00  1.993E+00
  3.600E-02  2.104E-02  3.439E+00  6.708E-05  6.501E-02  2.073E+00  1.994E+00
  3.600E-02  2.946E-02  3.379E+00  5.084E-05  6.503E-02  2.150E+00  1.996E+00
  3.600E-02  3.787E-02  3.319E+00  3.718E-05  6.503E-02  2.254E+00  1.999E+00
  3.600E-02  4.629E-02  3.259E+00  2.671E-05  6.503E-02  2.383E+00  2.004E+00
  3.600E-02  5.471E-02  3.200E+00  1.897E-05  6.503E-02  2.538E+00  2.010E+00
  3.600E-02  6.313E-02  3.140E+00  1.338E-05  6.503E-02  2.719E+00  2.019E+00
  3.600E-02  7.154E-02  3.080E+00  9.416E-06  6.503E-02  2.927E+00  2.030E+00
  3.600E-02  7.996E-02  3.020E+00  6.605E-06  6.503E-02  3.164E+00  2.043E+00
  3.600E-02  8.838E-02  2.960E+00  4.627E-06  6.503E-02  3.429E+00  2.064E+00
  3.600E-02  9.679E-02  2.901E+00  3.252E-06  6.503E-02  3.724E+00  2.185E+00
  3.600E-02  1.052E-01  2.841E+00  2.273E-06  6.503E-02  4.051E+00  4.846E+00
  3.600E-02  1.136E-01  2.781E+00  1.601E-06  6.503E-02  3.728E+00  4.832E+00
  3.600E-02  1.220E-01  2.721E+00  1.119E-06  6.503E-02  3.429E+00  4.815E+00
  3.600E-02  1.305E-01  2.661E+00  7.794E-07  6.503E-02  3.154E+00  4.795E+00
  3.600E-02  1.389E-01  2.602E+00  5.514E-07  6.503E-02  2.900E+00  4.772E+00
  3.600E-02  1.473E-01  2.542E+00  3.862E-07  6.503E-02  2.669E+00  4.747E+00
  3.600E-02  1.557E-01  2.482E+00  2.614E-07  6.503E-02  2.459E+00  4.720E+00
  3.600E-02  1.641E-01  2.422E+00  1.873E-07  6.503E-02  2.269E+00  4.690E+00
  3.600E-02  1.725E-01  2.362E+00  1.349E-07  6.503E-02  2.097E+00  4.659E+00
  3.600E-02  1.810E-01  2.303E+00  7.350E-08  6.503E-02  1.944E+00  4.626E+00
  3.600E-02  1.894E-01  2.243E+00  5.043E-08  6.503E-02  1.807E+00  4.592E+00
  3.600E-02  1.978E-01  2.183E+00  5.775E-08  6.503E-02  1.686E+00  4.557E+00
  3.600E-02  2.062E-01  2.123E+00  3.509E-08  6.503E-02  1.578E+00  4.522E+00
  3.600E-02  2.146E-01  2.063E+00  1.625E-08  6.503E-02  1.484E+00  4.485E+00
  3.600E-02  2.230E-01  2.004E+00  1.083E-08  6.503E-02  1.402E+00  4.448E+00
  3.600E-02  2.315E-01  1.944E+00  7.692E-09  6.503E-02  1.330E+00  4.411E+00
  3.600E-02  2.399E-01  1.884E+00  4.168E-09  6.503E-02  1.267E+00  4.373E+00
  3.600E-02  2.483E-01  1.824E+00  3.506E-09  6.503E-02  1.213E+00  4.335E+00
  3.600E-02  2.567E-01  1.764E+00  2.424E-09  6.503E-02  1.167E+00  4.297E+00
  3.600E-02  2.651E-01  1.705E+00  1.887E-09  6.503E-02  1.126E+00  4.259E+00
  3.600E-02  2.735E-01  1.645E+00  1.599E-09  6.503E-02  1.091E+00  4.221E+00
  3.600E-02  2.820E-01  1.585E+00  1.169E-09  6.503E-02  1.061E+00  4.183E+00
  3.600E-02  2.904E-01  1.525E+00  7.855E-10  6.503E-02  1.035E+00  4.145E+00
  3.600E-02  2.988E-01  1.465E+00  5.171E-10  6.503E-02  1.013E+00  4.108E+00
  3.600E-02  3.072E-01  1.406E+00  3.420E-10  6.503E-02  9.929E-01  4.070E+00
  3.600E-02  3.156E-01  1.346E+00  2.273E-10  6.503E-02  9.756E-01  4.033E+00
  3.600E-02  3.240E-01  1.286E+00  1.396E-10  6.503E-02  9.604E-01  3.996E+00
  3.600E-02  3.325E-01  1.226E+00  8.246E-11  6.503E-02  9.468E-01  3.960E+00
  3.600E-02  3.409E-01  1.166E+00  4.970E-11  6.503E-02  9.347E-01  3.923E+00
  3.600E-02  3.493E-01  1.107E+00  2.977E-11  6.503E-02  9.237E-01  3.887E+00
  3.600E-02  3.577E-01  1.047E+00  3.325E-11  6.503E-02  9.136E-01  3.852E+00
  3.600E-02  3.661E-01  9.869E-01  2.198E-11  6.503E-02  9.043E-01  3.816E+00
  3.600E-02  3.745E-01  9.271E-01  1.742E-11  6.503E-02  8.956E-01  3.781E+00
  3.600E-02  3.830E-01  8.673E-01 -3.938E-10  6.503E-02  8.875E-01  3.747E+00
  3.600E-02  3.914E-01  8.075E-01  1.726E-09  6.503E-02  8.800E-01  3.712E+00
  3.600E-02  3.998E-01  7.477E-01  6.838E-09  6.503E-02  8.729E-01  3.678E+00
  3.600E-02  4.082E-01  6.879E-01  3.572E-09  6.503E-02  8.663E-01  3.644E+00
  3.600E-02  4.166E-01  6.281E-01  4.903E-10  6.503E-02  8.604E-01  3.611E+00
  3.600E-02  4.250E-01  5.683E-01  9.684E-10  6.503E-02  8.551E-01  3.578E+00
  3.600E-02  4.335E-01  5.085E-01  2.342E-09  6.503E-02  8.506E-01  3.545E+00
  3.600E-02  4.419E-01  4.487E-01  6.138E-09  6.503E-02  8.471E-01  3.513E+00
  3.600E-02  4.503E-01  3.889E-01  9.134E-09  6.503E-02  8.447E-01  3.481E+00
  3.600E-02  4.587E-01  3.291E-01  1.451E-08  6.503E-02  8.434E-01  3.449E+00
  3.600E-02  4.671E-01  2.693E-01  2.123E-08  6.503E-02  8.432E-01  3.418E+00
  3.600E-02  4.755E-01  2.095E-01  2.464E-08  6.503E-02  8.439E-01  3.387E+00
  3.600E-02  4.840E-01  1.497E-01  2.229E-08  6.505E-02  8.450E-01  3.357E+00
  3.600E-02  4.924E-01  8.981E-02  1.402E-08  6.507E-02  8.462E-01  3.326E+00
  3.600E-02  5.008E-01  2.993E-02  4.187E-09  6.508E-02  8.469E-01  3.298E+00
  3.600E-02  5.050E-01  0.000E+00  4.187E-09  6.508E-02  8.469E-01  3.298E+00
  4.400E-02  0.000E+00  3.588E+00  6.828E-05  6.500E-02  1.995E+00  1.993E+00
  4.400E-02  4.208E-03  3.558E+00  6.828E-05  6.487E-02  1.995E+00  1.993E+00
  4.400E-02  1.262E-02  3.499E+00  6.302E-05  6.493E-02  2.021E+00  1.993E+00
  4.400E-02  2.104E-02  3.439E+00  5.345E-05  6.500E-02  2.073E+00  1.994E+00
  4.400E-02  2.946E-02  3.379E+00  4.241E-05  6.502E-02  2.151E+00  1.996E+00
  4.400E-02  3.787E-02  3.319E+00  3.228E-05  6.502E-02  2.254E+00  1.999E+00
  4.400E-02  4.629E-02  3.259E+00  2.394E-05  6.502E-02  2.383E+00  2.004E+00
  4.400E-02  5.471E-02  3.200E+00  1.745E-05  6.502E-02  2.538E+00  2.010E+00
  4.400E-02  6.313E-02  3.140E+00  1.258E-05  6.503E-02  2.719E+00  2.019E+00
  4.400E-02  7.154E-02  3.080E+00  8.984E-06  6.503E-02  2.927E+00  2.030E+00
  4.400E-02  7.996E-02  3.020E+00  6.374E-06  6.503E-02  3.164E+00  2.043E+00