VARIABLES="XP","YP","P","U","V","TS","TF"
ZONE T="Zone 001"I=    82 J=    22 F=POINT
  0.000E+00  0.000E+00  1.019E+05  0.000E+00  0.000E+00  2.938E+02  2.938E+02
  0.000E+00  3.156E-03  1.019E+05  0.000E+00  0.000E+00  2.938E+02  2.938E+02
  0.000E+00  9.469E-03  1.019E+05  0.000E+00  0.000E+00  2.938E+02  2.938E+02
  0.000E+00  1.578E-02  1.019E+05  0.000E+00  0.000E+00  2.938E+02  2.938E+02
  0.000E+00  2.209E-02  1.019E+05  0.000E+00  0.000E+00  2.938E+02  2.938E+02
  0.000E+00  2.841E-02  1.019E+05  0.000E+00  0.000E+00  2.938E+02  2.938E+02
  0.000E+00  3.472E-02  1.019E+05  0.000E+00  0.000E+00  2.938E+02  2.938E+02
  0.000E+00  4.103E-02  1.019E+05  0.000E+00  0.000E+00  2.938E+02  2.938E+02
  0.000E+00  4.734E-02  1.019E+05  0.000E+00  0.000E+00  2.938E+02  2.938E+02
  0.000E+00  5.366E-02  1.019E+05  0.000E+00  0.000E+00  2.938E+02  2.938E+02
  0.000E+00  5.997E-02  1.018E+05  0.000E+00  0.000E+00  2.938E+02  2.938E+02
  0.000E+00  6.628E-02  1.018E+05  0.000E+00  0.000E+00  2.938E+02  2.938E+02
  0.000E+00  7.259E-02  1.018E+05  0.000E+00  0.000E+00  2.938E+02  2.938E+02
  0.000E+00  7.891E-02  1.018E+05  0.000E+00  0.000E+00  2.938E+02  2.938E+02
  0.000E+00  8.522E-02  1.018E+05  0.000E+00  0.000E+00  2.938E+02  2.938E+02
  0.000E+00  9.153E-02  1.018E+05  0.000E+00  0.000E+00  2.938E+02  2.938E+02
  0.000E+00  9.784E-02  1.018E+05  0.000E+00  0.000E+00  2.939E+02  2.939E+02
  0.000E+00  1.042E-01  1.018E+05  0.000E+00  0.000E+00  2.939E+02  2.939E+02
  0.000E+00  1.105E-01  1.018E+05  0.000E+00  0.000E+00  2.940E+02  2.940E+02
  0.000E+00  1.168E-01  1.018E+05  0.000E+00  0.000E+00  2.941E+02  2.941E+02
  0.000E+00  1.231E-01  1.018E+05  0.000E+00  0.000E+00  2.942E+02  2.942E+02
  0.000E+00  1.294E-01  1.018E+05  0.000E+00  0.000E+00  2.943E+02  2.943E+02
  0.000E+00  1.357E-01  1.018E+05  0.000E+00  0.000E+00  2.945E+02  2.945E+02
  0.000E+00  1.420E-01  1.017E+05  0.000E+00  0.000E+00  2.947E+02  2.947E+02
  0.000E+00  1.483E-01  1.017E+05  0.000E+00  0.000E+00  2.949E+02  2.949E+02
  0.000E+00  1.547E-01  1.017E+05  0.000E+00  0.000E+00  2.951E+02  2.951E+02
  0.000E+00  1.610E-01  1.017E+05  0.000E+00  0.000E+00  2.954E+02  2.954E+02
  0.000E+00  1.673E-01  1.017E+05  0.000E+00  0.000E+00  2.957E+02  2.957E+02
  0.000E+00  1.736E-01  1.017E+05  0.000E+00  0.000E+00  2.960E+02  2.959E+02
  0.000E+00  1.799E-01  1.017E+05  0.000E+00  0.000E+00  2.962E+02  2.962E+02
  0.000E+00  1.862E-01  1.017E+05  0.000E+00  0.000E+00  2.964E+02  2.964E+02
  0.000E+00  1.925E-01  1.017E+05  0.000E+00  0.000E+00  2.966E+02  2.966E+02
  0.000E+00  1.988E-01  1.017E+05  0.000E+00  0.000E+00  2.967E+02  2.967E+02
  0.000E+00  2.052E-01  1.017E+05  0.000E+00  0.000E+00  2.968E+02  2.968E+02
  0.000E+00  2.115E-01  1.017E+05  0.000E+00  0.000E+00  2.968E+02  2.968E+02
  0.000E+00  2.178E-01  1.017E+05  0.000E+00  0.000E+00  2.968E+02  2.968E+02
  0.000E+00  2.241E-01  1.017E+05  0.000E+00  0.000E+00  2.967E+02  2.967E+02
  0.000E+00  2.304E-01  1.016E+05  0.000E+00  0.000E+00  2.965E+02  2.965E+02
  0.000E+00  2.367E-01  1.016E+05  0.000E+00  0.000E+00  2.963E+02  2.963E+02
  0.000E+00  2.430E-01  1.016E+05  0.000E+00  0.000E+00  2.961E+02  2.961E+02
  0.000E+00  2.493E-01  1.016E+05  0.000E+00  0.000E+00  2.959E+02  2.959E+02
  0.000E+00  2.557E-01  1.016E+05  0.000E+00  0.000E+00  2.956E+02  2.956E+02
  0.000E+00  2.620E-01  1.016E+05  0.000E+00  0.000E+00  2.954E+02  2.954E+02
  0.000E+00  2.683E-01  1.016E+05  0.000E+00  0.000E+00  2.951E+02  2.952E+02
  0.000E+00  2.746E-01  1.016E+05  0.000E+00  0.000E+00  2.949E+02  2.949E+02
  0.000E+00  2.809E-01  1.016E+05  0.000E+00  0.000E+00  2.947E+02  2.947E+02
  0.000E+00  2.872E-01  1.016E+05  0.000E+00  0.000E+00  2.945E+02  2.945E+02
  0.000E+00  2.935E-01  1.016E+05  0.000E+00  0.000E+00  2.943E+02  2.943E+02
  0.000E+00  2.998E-01  1.016E+05  0.000E+00  0.000E+00  2.941E+02  2.941E+02
  0.000E+00  3.062E-01  1.016E+05  0.000E+00  0.000E+00  2.940E+02  2.940E+02
  0.000E+00  3.125E-01  1.015E+05  0.000E+00  0.000E+00  2.939E+02  2.939E+02
  0.000E+00  3.188E-01  1.015E+05  0.000E+00  0.000E+00  2.938E+02  2.938E+02
  0.000E+00  3.251E-01  1.015E+05  0.000E+00  0.000E+00  2.937E+02  2.937E+02
  0.000E+00  3.314E-01  1.015E+05  0.000E+00  0.000E+00  2.936E+02  2.936E+02
  0.000E+00  3.377E-01  1.015E+05  0.000E+00  0.000E+00  2.935E+02  2.935E+02
  0.000E+00  3.440E-01  1.015E+05  0.000E+00  0.000E+00  2.935E+02  2.935E+02
  0.000E+00  3.503E-01  1.015E+05  0.000E+00  0.000E+00  2.934E+02  2.934E+02
  0.000E+00  3.567E-01  1.015E+05  0.000E+00  0.000E+00  2.934E+02  2.934E+02
  0.000E+00  3.630E-01  1.015E+05  0.000E+00  0.000E+00  2.934E+02  2.934E+02
  0.000E+00  3.693E-01  1.015E+05  0.000E+00  0.000E+00  2.933E+02  2.933E+02
  0.000E+00  3.756E-01  1.015E+05  0.000E+00  0.000E+00  2.933E+02  2.933E+02
  0.000E+00  3.819E-01  1.015E+05  0.000E+00  0.000E+00  2.933E+02  2.933E+02
  0.000E+00  3.882E-01  1.015E+05  0.000E+00  0.000E+00  2.933E+02  2.933E+02
  0.000E+00  3.945E-01  1.015E+05  0.000E+00  0.000E+00  2.933E+02  2.933E+02
  0.000E+00  4.008E-01  1.014E+05  0.000E+00  0.000E+00  2.933E+02  2.933E+02
  0.000E+00  4.072E-01  1.014E+05  0.000E+00  0.000E+00  2.933E+02  2.933E+02
  0.000E+00  4.135E-01  1.014E+05  0.000E+00  0.000E+00  2.932E+02  2.932E+02
  0.000E+00  4.198E-01  1.014E+05  0.000E+00  0.000E+00  2.932E+02  2.932E+02
  0.000E+00  4.261E-01  1.014E+05  0.000E+00  0.000E+00  2.932E+02  2.932E+02
  0.000E+00  4.324E-01  1.014E+05  0.000E+00  0.000E+00  2.932E+02  2.932E+02
  0.000E+00  4.387E-01  1.014E+05  0.000E+00  0.000E+00  2.932E+02  2.932E+02
  0.000E+00  4.450E-01  1.014E+05  0.000E+00  0.000E+00  2.932E+02  2.932E+02
  0.000E+00  4.513E-01  1.014E+05  0.000E+00  0.000E+00  2.932E+02  2.932E+02
  0.000E+00  4.577E-01  1.014E+05  0.000E+00  0.000E+00  2.932E+02  2.932E+02
  0.000E+00  4.640E-01  1.014E+05  0.000E+00  0.000E+00  2.932E+02  2.932E+02
  0.000E+00  4.703E-01  1.014E+05  0.000E+00  0.000E+00  2.932E+02  2.932E+02
  0.000E+00  4.766E-01  1.014E+05  0.000E+00  0.000E+00  2.932E+02  2.932E+02
  0.000E+00  4.829E-01  1.014E+05  0.000E+00  0.000E+00  2.932E+02  2.932E+02
  0.000E+00  4.892E-01  1.013E+05  0.000E+00  0.000E+00  2.932E+02  2.932E+02
  0.000E+00  4.955E-01  1.013E+05  0.000E+00  0.000E+00  2.932E+02  2.932E+02
  0.000E+00  5.018E-01  1.013E+05  0.000E+00  0.000E+00  2.932E+02  2.932E+02
  0.000E+00  5.050E-01  1.013E+05  0.000E+00  0.000E+00  2.932E+02  2.932E+02
  4.000E-03  0.000E+00  1.019E+05  8.159E-07  6.500E-02  2.938E+02  2.938E+02
  4.000E-03  3.156E-03  1.019E+05  8.159E-07  6.498E-02  2.938E+02  2.938E+02
  4.000E-03  9.469E-03  1.019E+05  3.451E-07  6.499E-02  2.938E+02  2.938E+02
  4.000E-03  1.578E-02  1.019E+05  2.431E-07  6.500E-02  2.938E+02  2.938E+02
  4.000E-03  2.209E-02  1.019E+05  2.385E-07  6.499E-02  2.938E+02  2.938E+02
  4.000E-03  2.841E-02  1.019E+05  7.592E-07  6.499E-02  2.938E+02  2.938E+02
  4.000E-03  3.472E-02  1.019E+05  1.433E-06  6.500E-02  2.938E+02  2.938E+02
  4.000E-03  4.103E-02  1.019E+05  7.270E-07  6.500E-02  2.938E+02  2.938E+02
  4.000E-03  4.734E-02  1.019E+05  1.560E-07  6.500E-02  2.938E+02  2.938E+02
  4.000E-03  5.366E-02  1.019E+05  7.211E-08  6.499E-02  2.938E+02  2.938E+02
  4.000E-03  5.997E-02  1.018E+05  1.917E-08  6.499E-02  2.938E+02  2.938E+02
  4.000E-03  6.628E-02  1.018E+05  6.982E-09  6.499E-02  2.938E+02  2.938E+02
  4.000E-03  7.259E-02  1.018E+05  2.514E-09  6.499E-02  2.938E+02  2.938E+02
  4.000E-03  7.891E-02  1.018E+05  1.418E-09  6.499E-02  2.938E+02  2.938E+02
  4.000E-03  8.522E-02  1.018E+05  1.084E-09  6.499E-02  2.938E+02  2.938E+02
  4.000E-03  9.153E-02  1.018E+05  9.356E-10  6.500E-02  2.938E+02  2.938E+02
  4.000E-03  9.784E-02  1.018E+05  8.275E-10  6.500E-02  2.939E+02  2.939E+02
  4.000E-03  1.042E-01  1.018E+05  7.198E-10  6.500E-02  2.939E+02  2.939E+02
  4.000E-03  1.105E-01  1.018E+05  5.952E-10  6.499E-02  2.940E+02  2.940E+02
  4.000E-03  1.168E-01  1.018E+05  4.933E-10  6.499E-02  2.941E+02  2.941E+02
  4.000E-03  1.231E-01  1.018E+05  3.826E-10  6.499E-02  2.942E+02  2.942E+02
  4.000E-03  1.294E-01  1.018E+05  3.216E-10  6.499E-02  2.943E+02  2.943E+02
  4.000E-03  1.357E-01  1.018E+05  3.236E-10  6.499E-02  2.945E+02  2.945E+02
  4.000E-03  1.420E-01  1.017E+05  2.782E-10  6.499E-02  2.947E+02  2.947E+02
  4.000E-03  1.483E-01  1.017E+05  2.050E-10  6.499E-02  2.949E+02  2.949E+02
  4.000E-03  1.547E-01  1.017E+05  1.547E-10  6.499E-02  2.951E+02  2.951E+02
  4.000E-03  1.610E-01  1.017E+05  1.205E-10  6.500E-02  2.954E+02  2.954E+02
  4.000E-03  1.673E-01  1.017E+05  7.132E-11  6.500E-02  2.957E+02  2.957E+02
  4.000E-03  1.736E-01  1.017E+05  2.534E-11  6.500E-02  2.960E+02  2.959E+02
  4.000E-03  1.799E-01  1.017E+05 -9.685E-12  6.499E-02  2.962E+02  2.962E+02
  4.000E-03  1.862E-01  1.017E+05  1.636E-11  6.499E-02  2.964E+02  2.964E+02
  4.000E-03  1.925E-01  1.017E+05  5.060E-11  6.499E-02  2.966E+02  2.966E+02
  4.000E-03  1.988E-01  1.017E+05  3.441E-11  6.499E-02  2.967E+02  2.967E+02
  4.000E-03  2.052E-01  1.017E+05  3.408E-11  6.499E-02  2.968E+02  2.968E+02
  4.000E-03  2.115E-01  1.017E+05  2.703E-11  6.499E-02  2.968E+02  2.968E+02
  4.000E-03  2.178E-01  1.017E+05  1.828E-11  6.499E-02  2.968E+02  2.968E+02
  4.000E-03  2.241E-01  1.017E+05  9.351E-12  6.499E-02  2.967E+02  2.967E+02
  4.000E-03  2.304E-01  1.016E+05 -1.213E-11  6.500E-02  2.965E+02  2.965E+02
  4.000E-03  2.367E-01  1.016E+05 -2.526E-11  6.500E-02  2.963E+02  2.963E+02
  4.000E-03  2.430E-01  1.016E+05  7.597E-12  6.500E-02  2.961E+02  2.961E+02
  4.000E-03  2.493E-01  1.016E+05 -8.187E-12  6.499E-02  2.959E+02  2.959E+02
  4.000E-03  2.557E-01  1.016E+05 -5.062E-12  6.499E-02  2.956E+02  2.956E+02
  4.000E-03  2.620E-01  1.016E+05  2.181E-11  6.499E-02  2.954E+02  2.954E+02
  4.000E-03  2.683E-01  1.016E+05  5.838E-12  6.499E-02  2.951E+02  2.952E+02
  4.000E-03  2.746E-01  1.016E+05  1.482E-11  6.499E-02  2.949E+02  2.949E+02
  4.000E-03  2.809E-01  1.016E+05  2.289E-11  6.499E-02  2.947E+02  2.947E+02
  4.000E-03  2.872E-01  1.016E+05  2.279E-11  6.500E-02  2.945E+02  2.945E+02
  4.000E-03  2.935E-01  1.016E+05 -2.885E-11  6.500E-02  2.943E+02  2.943E+02
  4.000E-03  2.998E-01  1.016E+05 -3.057E-11  6.500E-02  2.941E+02  2.941E+02
  4.000E-03  3.062E-01  1.016E+05 -1.719E-11  6.499E-02  2.940E+02  2.940E+02
  4.000E-03  3.125E-01  1.015E+05  2.705E-12  6.499E-02  2.939E+02  2.939E+02
  4.000E-03  3.188E-01  1.015E+05  3.502E-11  6.499E-02  2.938E+02  2.938E+02
  4.000E-03  3.251E-01  1.015E+05  8.802E-12  6.499E-02  2.937E+02  2.937E+02
  4.000E-03  3.314E-01  1.015E+05  3.320E-12  6.499E-02  2.936E+02  2.936E+02
  4.000E-03  3.377E-01  1.015E+05  6.915E-14  6.499E-02  2.935E+02  2.935E+02
  4.000E-03  3.440E-01  1.015E+05  3.566E-12  6.499E-02  2.935E+02  2.935E+02
  4.000E-03  3.503E-01  1.015E+05  9.797E-12  6.499E-02  2.934E+02  2.934E+02
  4.000E-03  3.567E-01  1.015E+05  1.502E-11  6.500E-02  2.934E+02  2.934E+02
  4.000E-03  3.630E-01  1.015E+05 -2.700E-11  6.500E-02  2.934E+02  2.934E+02
  4.000E-03  3.693E-01  1.015E+05 -2.875E-11  6.500E-02  2.933E+02  2.933E+02
  4.000E-03  3.756E-01  1.015E+05 -2.168E-11  6.499E-02  2.933E+02  2.933E+02
  4.000E-03  3.819E-01  1.015E+05 -2.531E-12  6.499E-02  2.933E+02  2.933E+02
  4.000E-03  3.882E-01  1.015E+05  3.382E-11  6.499E-02  2.933E+02  2.933E+02
  4.000E-03  3.945E-01  1.015E+05  1.381E-11  6.499E-02  2.933E+02  2.933E+02
  4.000E-03  4.008E-01  1.014E+05  8.456E-12  6.499E-02  2.933E+02  2.933E+02
  4.000E-03  4.072E-01  1.014E+05 -2.862E-12  6.499E-02  2.933E+02  2.933E+02
  4.000E-03  4.135E-01  1.014E+05 -9.601E-12  6.499E-02  2.932E+02  2.932E+02
  4.000E-03  4.198E-01  1.014E+05 -7.977E-12  6.499E-02  2.932E+02  2.932E+02
  4.000E-03  4.261E-01  1.014E+05 -1.510E-11  6.500E-02  2.932E+02  2.932E+02
  4.000E-03  4.324E-01  1.014E+05  1.291E-12  6.500E-02  2.932E+02  2.932E+02
  4.000E-03  4.387E-01  1.014E+05  1.398E-11  6.500E-02  2.932E+02  2.932E+02
  4.000E-03  4.450E-01  1.014E+05 -2.759E-11  6.499E-02  2.932E+02  2.932E+02
  4.000E-03  4.513E-01  1.014E+05 -9.272E-12  6.499E-02  2.932E+02  2.932E+02
  4.000E-03  4.577E-01  1.014E+05  1.573E-11  6.499E-02  2.932E+02  2.932E+02
  4.000E-03  4.640E-01  1.014E+05 -2.506E-12  6.499E-02  2.932E+02  2.932E+02
  4.000E-03  4.703E-01  1.014E+05  6.301E-12  6.499E-02  2.932E+02  2.932E+02
  4.000E-03  4.766E-01  1.014E+05  1.108E-11  6.499E-02  2.932E+02  2.932E+02
  4.000E-03  4.829E-01  1.014E+05  8.653E-12  6.499E-02  2.932E+02  2.932E+02
  4.000E-03  4.892E-01  1.013E+05 -9.991E-12  6.499E-02  2.932E+02  2.932E+02
  4.000E-03  4.955E-01  1.013E+05 -4.070E-11  6.499E-02  2.932E+02  2.932E+02
  4.000E-03  5.018E-01  1.013E+05 -5.681E-11  6.500E-02  2.932E+02  2.932E+02
  4.000E-03  5.050E-01  1.013E+05 -5.681E-11  6.500E-02  2.932E+02  2.932E+02
  1.200E-02  0.000E+00  1.019E+05  1.109E-06  6.500E-02  2.938E+02  2.938E+02
  1.200E-02  3.156E-03  1.019E+05  1.109E-06  6.498E-02  2.938E+02  2.938E+02
  1.200E-02  9.469E-03  1.019E+05  4.972E-07  6.500E-02  2.938E+02  2.938E+02
  1.200E-02  1.578E-02  1.019E+05  2.964E-07  6.500E-02  2.938E+02  2.938E+02
  1.200E-02  2.209E-02  1.019E+05 -4.992E-07  6.500E-02  2.938E+02  2.938E+02
  1.200E-02  2.841E-02  1.019E+05  2.598E-06  6.500E-02  2.938E+02  2.938E+02
  1.200E-02  3.472E-02  1.019E+05  8.146E-06  6.500E-02  2.938E+02  2.938E+02
  1.200E-02  4.103E-02  1.019E+05  2.552E-06  6.501E-02  2.938E+02  2.938E+02
  1.200E-02  4.734E-02  1.019E+05 -6.636E-07  6.500E-02  2.938E+02  2.938E+02
  1.200E-02  5.366E-02  1.019E+05 -2.332E-08  6.500E-02  2.938E+02  2.938E+02
  1.200E-02  5.997E-02  1.018E+05 -4.739E-08  6.500E-02  2.938E+02  2.938E+02
  1.200E-02  6.628E-02  1.018E+05 -1.261E-08  6.500E-02  2.938E+02  2.938E+02
  1.200E-02  7.259E-02  1.018E+05 -4.136E-09  6.500E-02  2.938E+02  2.938E+02
  1.200E-02  7.891E-02  1.018E+05  4.654E-10  6.500E-02  2.938E+02  2.938E+02
  1.200E-02  8.522E-02  1.018E+05  2.095E-09  6.500E-02  2.938E+02  2.938E+02
  1.200E-02  9.153E-02  1.018E+05  2.519E-09  6.500E-02  2.938E+02  2.938E+02
  1.200E-02  9.784E-02  1.018E+05  2.444E-09  6.501E-02  2.939E+02  2.939E+02
  1.200E-02  1.042E-01  1.018E+05  2.203E-09  6.500E-02  2.939E+02  2.939E+02
  1.200E-02  1.105E-01  1.018E+05  1.893E-09  6.500E-02  2.940E+02  2.940E+02
  1.200E-02  1.168E-01  1.018E+05  1.607E-09  6.500E-02  2.941E+02  2.941E+02
  1.200E-02  1.231E-01  1.018E+05  1.321E-09  6.500E-02  2.942E+02  2.942E+02
  1.200E-02  1.294E-01  1.018E+05  1.113E-09  6.500E-02  2.943E+02  2.943E+02
  1.200E-02  1.357E-01  1.018E+05  9.060E-10  6.500E-02  2.945E+02  2.945E+02
  1.200E-02  1.420E-01  1.017E+05  6.527E-10  6.500E-02  2.947E+02  2.947E+02
  1.200E-02  1.483E-01  1.017E+05  4.391E-10  6.500E-02  2.949E+02  2.949E+02
  1.200E-02  1.547E-01  1.017E+05  2.860E-10  6.500E-02  2.951E+02  2.951E+02
  1.200E-02  1.610E-01  1.017E+05  1.965E-10  6.500E-02  2.954E+02  2.954E+02
  1.200E-02  1.673E-01  1.017E+05  1.292E-10  6.501E-02  2.957E+02  2.957E+02
  1.200E-02  1.736E-01  1.017E+05  9.963E-11  6.500E-02  2.960E+02  2.959E+02
  1.200E-02  1.799E-01  1.017E+05  1.055E-10  6.500E-02  2.962E+02  2.962E+02
  1.200E-02  1.862E-01  1.017E+05  1.718E-10  6.500E-02  2.964E+02  2.964E+02
  1.200E-02  1.925E-01  1.017E+05  2.046E-10  6.500E-02  2.966E+02  2.966E+02
  1.200E-02  1.988E-01  1.017E+05  1.547E-10  6.500E-02  2.967E+02  2.967E+02
  1.200E-02  2.052E-01  1.017E+05  1.074E-10  6.500E-02  2.968E+02  2.968E+02
  1.200E-02  2.115E-01  1.017E+05  6.944E-11  6.500E-02  2.968E+02  2.968E+02
  1.200E-02  2.178E-01  1.017E+05  3.944E-11  6.500E-02  2.968E+02  2.968E+02
  1.200E-02  2.241E-01  1.017E+05  1.342E-11  6.500E-02  2.967E+02  2.967E+02
  1.200E-02  2.304E-01  1.016E+05 -4.169E-11  6.500E-02  2.965E+02  2.965E+02
  1.200E-02  2.367E-01  1.016E+05 -9.517E-11  6.501E-02  2.963E+02  2.963E+02
  1.200E-02  2.430E-01  1.016E+05 -7.753E-11  6.500E-02  2.961E+02  2.961E+02
  1.200E-02  2.493E-01  1.016E+05 -6.967E-11  6.500E-02  2.959E+02  2.959E+02
  1.200E-02  2.557E-01  1.016E+05 -4.254E-12  6.500E-02  2.956E+02  2.956E+02
  1.200E-02  2.620E-01  1.016E+05  8.184E-11  6.500E-02  2.954E+02  2.954E+02
  1.200E-02  2.683E-01  1.016E+05  9.505E-11  6.500E-02  2.951E+02  2.952E+02
  1.200E-02  2.746E-01  1.016E+05  8.747E-11  6.500E-02  2.949E+02  2.949E+02
  1.200E-02  2.809E-01  1.016E+05  5.617E-11  6.500E-02  2.947E+02  2.947E+02
  1.200E-02  2.872E-01  1.016E+05  1.410E-11  6.500E-02  2.945E+02  2.945E+02
  1.200E-02  2.935E-01  1.016E+05 -6.784E-11  6.501E-02  2.943E+02  2.943E+02
  1.200E-02  2.998E-01  1.016E+05 -7.355E-11  6.500E-02  2.941E+02  2.941E+02
  1.200E-02  3.062E-01  1.016E+05 -5.475E-11  6.500E-02  2.940E+02  2.940E+02
  1.200E-02  3.125E-01  1.015E+05 -3.022E-11  6.500E-02  2.939E+02  2.939E+02
  1.200E-02  3.188E-01  1.015E+05  9.627E-12  6.500E-02  2.938E+02  2.938E+02
  1.200E-02  3.251E-01  1.015E+05  7.403E-12  6.500E-02  2.937E+02  2.937E+02
  1.200E-02  3.314E-01  1.015E+05  2.710E-11  6.500E-02  2.936E+02  2.936E+02
  1.200E-02  3.377E-01  1.015E+05  4.394E-11  6.500E-02  2.935E+02  2.935E+02
  1.200E-02  3.440E-01  1.015E+05  4.843E-11  6.500E-02  2.935E+02  2.935E+02
  1.200E-02  3.503E-01  1.015E+05  4.416E-11  6.500E-02  2.934E+02  2.934E+02
  1.200E-02  3.567E-01  1.015E+05  2.408E-11  6.500E-02  2.934E+02  2.934E+02
  1.200E-02  3.630E-01  1.015E+05 -4.885E-11  6.501E-02  2.934E+02  2.934E+02
  1.200E-02  3.693E-01  1.015E+05 -6.137E-11  6.500E-02  2.933E+02  2.933E+02
  1.200E-02  3.756E-01  1.015E+05 -4.557E-11  6.500E-02  2.933E+02  2.933E+02
  1.200E-02  3.819E-01  1.015E+05 -1.486E-11  6.500E-02  2.933E+02  2.933E+02
  1.200E-02  3.882E-01  1.015E+05  1.639E-11  6.500E-02  2.933E+02  2.933E+02
  1.200E-02  3.945E-01  1.015E+05 -9.270E-12  6.500E-02  2.933E+02  2.933E+02
  1.200E-02  4.008E-01  1.014E+05 -6.187E-12  6.500E-02  2.933E+02  2.933E+02
  1.200E-02  4.072E-01  1.014E+05  1.808E-11  6.500E-02  2.933E+02  2.933E+02
  1.200E-02  4.135E-01  1.014E+05  4.802E-11  6.500E-02  2.932E+02  2.932E+02
  1.200E-02  4.198E-01  1.014E+05  6.691E-11  6.500E-02  2.932E+02  2.932E+02
  1.200E-02  4.261E-01  1.014E+05  3.011E-11  6.500E-02  2.932E+02  2.932E+02
  1.200E-02  4.324E-01  1.014E+05 -1.454E-11  6.501E-02  2.932E+02  2.932E+02
  1.200E-02  4.387E-01  1.014E+05 -5.538E-11  6.500E-02  2.932E+02  2.932E+02
  1.200E-02  4.450E-01  1.014E+05 -1.082E-10  6.500E-02  2.932E+02  2.932E+02
  1.200E-02  4.513E-01  1.014E+05 -4.311E-11  6.500E-02  2.932E+02  2.932E+02
  1.200E-02  4.577E-01  1.014E+05  3.974E-11  6.500E-02  2.932E+02  2.932E+02
  1.200E-02  4.640E-01  1.014E+05  5.780E-11  6.500E-02  2.932E+02  2.932E+02
  1.200E-02  4.703E-01  1.014E+05  5.534E-11  6.500E-02  2.932E+02  2.932E+02
  1.200E-02  4.766E-01  1.014E+05  1.696E-11  6.500E-02  2.932E+02  2.932E+02
  1.200E-02  4.829E-01  1.014E+05 -3.791E-11  6.500E-02  2.932E+02  2.932E+02
  1.200E-02  4.892E-01  1.013E+05 -8.402E-11  6.500E-02  2.932E+02  2.932E+02
  1.200E-02  4.955E-01  1.013E+05 -1.118E-10  6.500E-02  2.932E+02  2.932E+02
  1.200E-02  5.018E-01  1.013E+05 -1.243E-10  6.500E-02  2.932E+02  2.932E+02
  1.200E-02  5.050E-01  1.013E+05 -1.243E-10  6.500E-02  2.932E+02  2.932E+02
  2.000E-02  0.000E+00  1.019E+05  5.386E-07  6.500E-02  2.938E+02  2.938E+02
  2.000E-02  3.156E-03  1.019E+05  5.386E-07  6.498E-02  2.938E+02  2.938E+02
  2.000E-02  9.469E-03  1.019E+05  3.616E-07  6.500E-02  2.938E+02  2.938E+02
  2.000E-02  1.578E-02  1.019E+05  2.741E-07  6.500E-02  2.938E+02  2.938E+02
  2.000E-02  2.209E-02  1.019E+05 -4.735E-07  6.500E-02  2.938E+02  2.938E+02
  2.000E-02  2.841E-02  1.019E+05  2.660E-06  6.501E-02  2.938E+02  2.938E+02
  2.000E-02  3.472E-02  1.019E+05  8.158E-06  6.500E-02  2.938E+02  2.938E+02
  2.000E-02  4.103E-02  1.019E+05  2.610E-06  6.500E-02  2.938E+02  2.938E+02
  2.000E-02  4.734E-02  1.019E+05 -6.335E-07  6.500E-02  2.938E+02  2.938E+02
  2.000E-02  5.366E-02  1.019E+05 -5.727E-11  6.500E-02  2.938E+02  2.938E+02
  2.000E-02  5.997E-02  1.018E+05 -3.266E-08  6.500E-02  2.938E+02  2.938E+02
  2.000E-02  6.628E-02  1.018E+05 -2.594E-09  6.500E-02  2.938E+02  2.938E+02
  2.000E-02  7.259E-02  1.018E+05  2.691E-09  6.500E-02  2.938E+02  2.938E+02
  2.000E-02  7.891E-02  1.018E+05  5.297E-09  6.500E-02  2.938E+02  2.938E+02
  2.000E-02  8.522E-02  1.018E+05  5.629E-09  6.500E-02  2.938E+02  2.938E+02
  2.000E-02  9.153E-02  1.018E+05  5.199E-09  6.500E-02  2.938E+02  2.938E+02
  2.000E-02  9.784E-02  1.018E+05  4.469E-09  6.501E-02  2.939E+02  2.939E+02
  2.000E-02  1.042E-01  1.018E+05  3.724E-09  6.500E-02  2.939E+02  2.939E+02
  2.000E-02  1.105E-01  1.018E+05  3.096E-09  6.500E-02  2.940E+02  2.940E+02
  2.000E-02  1.168E-01  1.018E+05  2.541E-09  6.500E-02  2.941E+02  2.940E+02
  2.000E-02  1.231E-01  1.018E+05  2.074E-09  6.500E-02  2.942E+02  2.942E+02
  2.000E-02  1.294E-01  1.018E+05  1.645E-09  6.500E-02  2.943E+02  2.943E+02
  2.000E-02  1.357E-01  1.018E+05  1.218E-09  6.500E-02  2.945E+02  2.945E+02
  2.000E-02  1.420E-01  1.017E+05  8.944E-10  6.500E-02  2.947E+02  2.946E+02
  2.000E-02  1.483E-01  1.017E+05  6.498E-10  6.500E-02  2.949E+02  2.949E+02
  2.000E-02  1.547E-01  1.017E+05  4.651E-10  6.500E-02  2.951E+02  2.951E+02
  2.000E-02  1.610E-01  1.017E+05  3.538E-10  6.500E-02  2.954E+02  2.954E+02
  2.000E-02  1.673E-01  1.017E+05  3.033E-10  6.501E-02  2.957E+02  2.957E+02
  2.000E-02  1.736E-01  1.017E+05  2.871E-10  6.500E-02  2.959E+02  2.959E+02
  2.000E-02  1.799E-01  1.017E+05  2.764E-10  6.500E-02  2.962E+02  2.962E+02
  2.000E-02  1.862E-01  1.017E+05  2.646E-10  6.500E-02  2.964E+02  2.964E+02
  2.000E-02  1.925E-01  1.017E+05  2.301E-10  6.500E-02  2.966E+02  2.966E+02
  2.000E-02  1.988E-01  1.017E+05  1.828E-10  6.500E-02  2.967E+02  2.967E+02
  2.000E-02  2.052E-01  1.017E+05  1.315E-10  6.500E-02  2.968E+02  2.968E+02
  2.000E-02  2.115E-01  1.017E+05  8.792E-11  6.500E-02  2.968E+02  2.968E+02
  2.000E-02  2.178E-01  1.017E+05  4.063E-11  6.500E-02  2.968E+02  2.968E+02
  2.000E-02  2.241E-01  1.017E+05 -1.768E-12  6.500E-02  2.967E+02  2.967E+02
  2.000E-02  2.304E-01  1.016E+05 -4.848E-11  6.500E-02  2.965E+02  2.965E+02
  2.000E-02  2.367E-01  1.016E+05 -7.415E-11  6.501E-02  2.963E+02  2.963E+02
  2.000E-02  2.430E-01  1.016E+05 -5.698E-11  6.500E-02  2.961E+02  2.961E+02
  2.000E-02  2.493E-01  1.016E+05 -1.448E-11  6.500E-02  2.959E+02  2.959E+02
  2.000E-02  2.557E-01  1.016E+05  4.545E-11  6.500E-02  2.956E+02  2.956E+02
  2.000E-02  2.620E-01  1.016E+05  8.379E-11  6.500E-02  2.954E+02  2.954E+02
  2.000E-02  2.683E-01  1.016E+05  8.298E-11  6.500E-02  2.951E+02  2.952E+02
  2.000E-02  2.746E-01  1.016E+05  4.963E-11  6.500E-02  2.949E+02  2.949E+02
  2.000E-02  2.809E-01  1.016E+05  1.238E-11  6.500E-02  2.947E+02  2.947E+02
  2.000E-02  2.872E-01  1.016E+05 -2.196E-11  6.500E-02  2.945E+02  2.945E+02
  2.000E-02  2.935E-01  1.016E+05 -4.898E-11  6.501E-02  2.943E+02  2.943E+02
  2.000E-02  2.998E-01  1.016E+05 -5.369E-11  6.500E-02  2.941E+02  2.941E+02
  2.000E-02  3.062E-01  1.016E+05 -4.736E-11  6.500E-02  2.940E+02  2.940E+02
  2.000E-02  3.125E-01  1.015E+05 -2.758E-11  6.500E-02  2.939E+02  2.939E+02
  2.000E-02  3.188E-01  1.015E+05 -1.243E-12  6.500E-02  2.938E+02  2.938E+02
  2.000E-02  3.251E-01  1.015E+05  2.622E-11  6.500E-02  2.937E+02  2.937E+02
  2.000E-02  3.314E-01  1.015E+05  4.367E-11  6.500E-02  2.936E+02  2.936E+02
  2.000E-02  3.377E-01  1.015E+05  4.865E-11  6.500E-02  2.935E+02  2.935E+02
  2.000E-02  3.440E-01  1.015E+05  3.248E-11  6.500E-02  2.935E+02  2.935E+02
  2.000E-02  3.503E-01  1.015E+05  1.303E-11  6.500E-02  2.934E+02  2.934E+02
  2.000E-02  3.567E-01  1.015E+05 -1.332E-11  6.500E-02  2.934E+02  2.934E+02
  2.000E-02  3.630E-01  1.015E+05 -3.632E-11  6.501E-02  2.934E+02  2.934E+02
  2.000E-02  3.693E-01  1.015E+05 -3.620E-11  6.500E-02  2.933E+02  2.933E+02
  2.000E-02  3.756E-01  1.015E+05 -2.536E-11  6.500E-02  2.933E+02  2.933E+02
  2.000E-02  3.819E-01  1.015E+05 -1.272E-11  6.500E-02  2.933E+02  2.933E+02
  2.000E-02  3.882E-01  1.015E+05 -9.915E-12  6.500E-02  2.933E+02  2.933E+02
  2.000E-02  3.945E-01  1.015E+05 -5.509E-12  6.500E-02  2.933E+02  2.933E+02
  2.000E-02  4.008E-01  1.014E+05  1.037E-11  6.500E-02  2.933E+02  2.933E+02
  2.000E-02  4.072E-01  1.014E+05  3.950E-11  6.500E-02  2.933E+02  2.933E+02
  2.000E-02  4.135E-01  1.014E+05  5.330E-11  6.500E-02  2.932E+02  2.932E+02
  2.000E-02  4.198E-01  1.014E+05  4.499E-11  6.500E-02  2.932E+02  2.932E+02
  2.000E-02  4.261E-01  1.014E+05 -5.243E-13  6.500E-02  2.932E+02  2.932E+02
  2.000E-02  4.324E-01  1.014E+05 -4.715E-11  6.501E-02  2.932E+02  2.932E+02
  2.000E-02  4.387E-01  1.014E+05 -6.483E-11  6.500E-02  2.932E+02  2.932E+02
  2.000E-02  4.450E-01  1.014E+05 -4.833E-11  6.500E-02  2.932E+02  2.932E+02
  2.000E-02  4.513E-01  1.014E+05  8.662E-12  6.500E-02  2.932E+02  2.932E+02
  2.000E-02  4.577E-01  1.014E+05  5.537E-11  6.500E-02  2.932E+02  2.932E+02
  2.000E-02  4.640E-01  1.014E+05  6.641E-11  6.500E-02  2.932E+02  2.932E+02
  2.000E-02  4.703E-01  1.014E+05  3.537E-11  6.500E-02  2.932E+02  2.932E+02
  2.000E-02  4.766E-01  1.014E+05 -1.518E-11  6.500E-02  2.932E+02  2.932E+02
  2.000E-02  4.829E-01  1.014E+05 -6.609E-11  6.500E-02  2.932E+02  2.932E+02
  2.000E-02  4.892E-01  1.013E+05 -9.102E-11  6.500E-02  2.932E+02  2.932E+02
  2.000E-02  4.955E-01  1.013E+05 -9.497E-11  6.500E-02  2.932E+02  2.932E+02
  2.000E-02  5.018E-01  1.013E+05 -9.703E-11  6.500E-02  2.932E+02  2.932E+02
  2.000E-02  5.050E-01  1.013E+05 -9.703E-11  6.500E-02  2.932E+02  2.932E+02
  2.800E-02  0.000E+00  1.019E+05  4.110E-07  6.500E-02  2.938E+02  2.938E+02
  2.800E-02  3.156E-03  1.019E+05  4.110E-07  6.498E-02  2.938E+02  2.938E+02
  2.800E-02  9.469E-03  1.019E+05  3.558E-07  6.500E-02  2.938E+02  2.938E+02
  2.800E-02  1.578E-02  1.019E+05  3.477E-07  6.500E-02  2.938E+02  2.938E+02
  2.800E-02  2.209E-02  1.019E+05  3.357E-07  6.500E-02  2.938E+02  2.938E+02
  2.800E-02  2.841E-02  1.019E+05  9.433E-07  6.501E-02  2.938E+02  2.938E+02
  2.800E-02  3.472E-02  1.019E+05  9.450E-07  6.500E-02  2.938E+02  2.938E+02
  2.800E-02  4.103E-02  1.019E+05  8.753E-07  6.500E-02  2.938E+02  2.938E+02
  2.800E-02  4.734E-02  1.019E+05  1.945E-07  6.500E-02  2.938E+02  2.938E+02
  2.800E-02  5.366E-02  1.019E+05  1.262E-07  6.500E-02  2.938E+02  2.938E+02
  2.800E-02  5.997E-02  1.018E+05  5.407E-08  6.500E-02  2.938E+02  2.938E+02
  2.800E-02  6.628E-02  1.018E+05  3.244E-08  6.500E-02  2.938E+02  2.938E+02
  2.800E-02  7.259E-02  1.018E+05  2.058E-08  6.500E-02  2.938E+02  2.938E+02
  2.800E-02  7.891E-02  1.018E+05  1.461E-08  6.500E-02  2.938E+02  2.938E+02
  2.800E-02  8.522E-02  1.018E+05  1.094E-08  6.500E-02  2.938E+02  2.938E+02
  2.800E-02  9.153E-02  1.018E+05  8.440E-09  6.500E-02  2.938E+02  2.938E+02
  2.800E-02  9.784E-02  1.018E+05  6.555E-09  6.501E-02  2.939E+02  2.939E+02
  2.800E-02  1.042E-01  1.018E+05  5.136E-09  6.500E-02  2.939E+02  2.939E+02
  2.800E-02  1.105E-01  1.018E+05  4.069E-09  6.500E-02  2.940E+02  2.940E+02
  2.800E-02  1.168E-01  1.018E+05  3.219E-09  6.500E-02  2.940E+02  2.940E+02
  2.800E-02  1.231E-01  1.018E+05  2.551E-09  6.500E-02  2.942E+02  2.941E+02
  2.800E-02  1.294E-01  1.018E+05  1.977E-09  6.500E-02  2.943E+02  2.943E+02
  2.800E-02  1.357E-01  1.018E+05  1.514E-09  6.500E-02  2.945E+02  2.944E+02
  2.800E-02  1.420E-01  1.017E+05  1.207E-09  6.500E-02  2.947E+02  2.946E+02
  2.800E-02  1.483E-01  1.017E+05  9.401E-10  6.500E-02  2.949E+02  2.949E+02
  2.800E-02  1.547E-01  1.017E+05  7.253E-10  6.500E-02  2.951E+02  2.951E+02
  2.800E-02  1.610E-01  1.017E+05  5.554E-10  6.500E-02  2.954E+02  2.954E+02
  2.800E-02  1.673E-01  1.017E+05  4.426E-10  6.501E-02  2.957E+02  2.957E+02
  2.800E-02  1.736E-01  1.017E+05  3.789E-10  6.500E-02  2.959E+02  2.959E+02
  2.800E-02  1.799E-01  1.017E+05  3.360E-10  6.500E-02  2.962E+02  2.962E+02
  2.800E-02  1.862E-01  1.017E+05  2.961E-10  6.500E-02  2.964E+02  2.964E+02
  2.800E-02  1.925E-01  1.017E+05  2.361E-10  6.500E-02  2.966E+02  2.966E+02
  2.800E-02  1.988E-01  1.017E+05  1.729E-10  6.500E-02  2.967E+02  2.967E+02
  2.800E-02  2.052E-01  1.017E+05  1.115E-10  6.500E-02  2.968E+02  2.968E+02
  2.800E-02  2.115E-01  1.017E+05  6.819E-11  6.500E-02  2.968E+02  2.968E+02
  2.800E-02  2.178E-01  1.017E+05  3.360E-11  6.500E-02  2.968E+02  2.968E+02
  2.800E-02  2.241E-01  1.017E+05  1.685E-11  6.500E-02  2.967E+02  2.967E+02
  2.800E-02  2.304E-01  1.016E+05 -4.963E-14  6.500E-02  2.965E+02  2.965E+02
  2.800E-02  2.367E-01  1.016E+05 -4.924E-12  6.501E-02  2.963E+02  2.963E+02
  2.800E-02  2.430E-01  1.016E+05  7.665E-12  6.500E-02  2.961E+02  2.961E+02
  2.800E-02  2.493E-01  1.016E+05  2.448E-11  6.500E-02  2.959E+02  2.959E+02
  2.800E-02  2.557E-01  1.016E+05  4.133E-11  6.500E-02  2.956E+02  2.956E+02
  2.800E-02  2.620E-01  1.016E+05  3.839E-11  6.500E-02  2.954E+02  2.954E+02
  2.800E-02  2.683E-01  1.016E+05  2.295E-11  6.500E-02  2.951E+02  2.952E+02
  2.800E-02  2.746E-01  1.016E+05  1.777E-13  6.500E-02  2.949E+02  2.949E+02
  2.800E-02  2.809E-01  1.016E+05 -8.014E-12  6.500E-02  2.947E+02  2.947E+02
  2.800E-02  2.872E-01  1.016E+05 -1.418E-11  6.500E-02  2.945E+02  2.945E+02
  2.800E-02  2.935E-01  1.016E+05 -1.913E-11  6.501E-02  2.943E+02  2.943E+02
  2.800E-02  2.998E-01  1.016E+05 -1.792E-11  6.500E-02  2.941E+02  2.941E+02
  2.800E-02  3.062E-01  1.016E+05 -1.552E-11  6.500E-02  2.940E+02  2.940E+02
  2.800E-02  3.125E-01  1.015E+05 -5.701E-12  6.500E-02  2.939E+02  2.939E+02
  2.800E-02  3.188E-01  1.015E+05  3.017E-12  6.500E-02  2.938E+02  2.938E+02
  2.800E-02  3.251E-01  1.015E+05  1.467E-11  6.500E-02  2.937E+02  2.937E+02
  2.800E-02  3.314E-01  1.015E+05  1.332E-11  6.500E-02  2.936E+02  2.936E+02
  2.800E-02  3.377E-01  1.015E+05  6.643E-12  6.500E-02  2.935E+02  2.935E+02