VARIABLES="XP","YP","P","U","V","TS","TF"
ZONE T="Zone 001"I=    82 J=    22 F=POINT
  0.000E+00  0.000E+00  1.016E+05  0.000E+00  0.000E+00  2.937E+02  7.943E+02
  0.000E+00  3.156E-03  1.016E+05  0.000E+00  0.000E+00  2.937E+02  7.943E+02
  0.000E+00  9.469E-03  1.016E+05  0.000E+00  0.000E+00  2.937E+02  7.950E+02
  0.000E+00  1.578E-02  1.016E+05  0.000E+00  0.000E+00  2.937E+02  7.964E+02
  0.000E+00  2.209E-02  1.016E+05  0.000E+00  0.000E+00  2.937E+02  7.985E+02
  0.000E+00  2.841E-02  1.016E+05  0.000E+00  0.000E+00  2.937E+02  8.013E+02
  0.000E+00  3.472E-02  1.016E+05  0.000E+00  0.000E+00  2.937E+02  8.049E+02
  0.000E+00  4.103E-02  1.016E+05  0.000E+00  0.000E+00  2.938E+02  8.092E+02
  0.000E+00  4.734E-02  1.016E+05  0.000E+00  0.000E+00  2.938E+02  8.143E+02
  0.000E+00  5.366E-02  1.016E+05  0.000E+00  0.000E+00  2.939E+02  8.202E+02
  0.000E+00  5.997E-02  1.016E+05  0.000E+00  0.000E+00  2.941E+02  8.270E+02
  0.000E+00  6.628E-02  1.016E+05  0.000E+00  0.000E+00  2.943E+02  8.344E+02
  0.000E+00  7.259E-02  1.016E+05  0.000E+00  0.000E+00  2.947E+02  8.426E+02
  0.000E+00  7.891E-02  1.016E+05  0.000E+00  0.000E+00  2.952E+02  8.514E+02
  0.000E+00  8.522E-02  1.016E+05  0.000E+00  0.000E+00  2.960E+02  8.609E+02
  0.000E+00  9.153E-02  1.015E+05  0.000E+00  0.000E+00  2.971E+02  8.712E+02
  0.000E+00  9.784E-02  1.015E+05  0.000E+00  0.000E+00  2.985E+02  8.824E+02
  0.000E+00  1.042E-01  1.015E+05  0.000E+00  0.000E+00  3.001E+02  8.944E+02
  0.000E+00  1.105E-01  1.015E+05  0.000E+00  0.000E+00  2.984E+02  8.703E+02
  0.000E+00  1.168E-01  1.015E+05  0.000E+00  0.000E+00  2.970E+02  8.467E+02
  0.000E+00  1.231E-01  1.015E+05  0.000E+00  0.000E+00  2.959E+02  8.238E+02
  0.000E+00  1.294E-01  1.015E+05  0.000E+00  0.000E+00  2.951E+02  8.017E+02
  0.000E+00  1.357E-01  1.015E+05  0.000E+00  0.000E+00  2.945E+02  7.802E+02
  0.000E+00  1.420E-01  1.015E+05  0.000E+00  0.000E+00  2.941E+02  7.594E+02
  0.000E+00  1.483E-01  1.015E+05  0.000E+00  0.000E+00  2.938E+02  7.391E+02
  0.000E+00  1.547E-01  1.015E+05  0.000E+00  0.000E+00  2.936E+02  7.195E+02
  0.000E+00  1.610E-01  1.015E+05  0.000E+00  0.000E+00  2.935E+02  7.005E+02
  0.000E+00  1.673E-01  1.015E+05  0.000E+00  0.000E+00  2.934E+02  6.821E+02
  0.000E+00  1.736E-01  1.015E+05  0.000E+00  0.000E+00  2.934E+02  6.642E+02
  0.000E+00  1.799E-01  1.015E+05  0.000E+00  0.000E+00  2.933E+02  6.468E+02
  0.000E+00  1.862E-01  1.015E+05  0.000E+00  0.000E+00  2.933E+02  6.300E+02
  0.000E+00  1.925E-01  1.015E+05  0.000E+00  0.000E+00  2.933E+02  6.138E+02
  0.000E+00  1.988E-01  1.015E+05  0.000E+00  0.000E+00  2.933E+02  5.980E+02
  0.000E+00  2.052E-01  1.015E+05  0.000E+00  0.000E+00  2.932E+02  5.827E+02
  0.000E+00  2.115E-01  1.015E+05  0.000E+00  0.000E+00  2.932E+02  5.679E+02
  0.000E+00  2.178E-01  1.015E+05  0.000E+00  0.000E+00  2.932E+02  5.535E+02
  0.000E+00  2.241E-01  1.015E+05  0.000E+00  0.000E+00  2.932E+02  5.396E+02
  0.000E+00  2.304E-01  1.015E+05  0.000E+00  0.000E+00  2.932E+02  5.262E+02
  0.000E+00  2.367E-01  1.015E+05  0.000E+00  0.000E+00  2.932E+02  5.133E+02
  0.000E+00  2.430E-01  1.015E+05  0.000E+00  0.000E+00  2.932E+02  5.008E+02
  0.000E+00  2.493E-01  1.015E+05  0.000E+00  0.000E+00  2.932E+02  4.888E+02
  0.000E+00  2.557E-01  1.015E+05  0.000E+00  0.000E+00  2.932E+02  4.773E+02
  0.000E+00  2.620E-01  1.015E+05  0.000E+00  0.000E+00  2.932E+02  4.662E+02
  0.000E+00  2.683E-01  1.015E+05  0.000E+00  0.000E+00  2.932E+02  4.556E+02
  0.000E+00  2.746E-01  1.015E+05  0.000E+00  0.000E+00  2.932E+02  4.454E+02
  0.000E+00  2.809E-01  1.014E+05  0.000E+00  0.000E+00  2.932E+02  4.357E+02
  0.000E+00  2.872E-01  1.014E+05  0.000E+00  0.000E+00  2.932E+02  4.265E+02
  0.000E+00  2.935E-01  1.014E+05  0.000E+00  0.000E+00  2.932E+02  4.177E+02
  0.000E+00  2.998E-01  1.014E+05  0.000E+00  0.000E+00  2.931E+02  4.093E+02
  0.000E+00  3.062E-01  1.014E+05  0.000E+00  0.000E+00  2.931E+02  4.013E+02
  0.000E+00  3.125E-01  1.014E+05  0.000E+00  0.000E+00  2.931E+02  3.937E+02
  0.000E+00  3.188E-01  1.014E+05  0.000E+00  0.000E+00  2.931E+02  3.865E+02
  0.000E+00  3.251E-01  1.014E+05  0.000E+00  0.000E+00  2.931E+02  3.797E+02
  0.000E+00  3.314E-01  1.014E+05  0.000E+00  0.000E+00  2.931E+02  3.734E+02
  0.000E+00  3.377E-01  1.014E+05  0.000E+00  0.000E+00  2.931E+02  3.674E+02
  0.000E+00  3.440E-01  1.014E+05  0.000E+00  0.000E+00  2.931E+02  3.619E+02
  0.000E+00  3.503E-01  1.014E+05  0.000E+00  0.000E+00  2.931E+02  3.567E+02
  0.000E+00  3.567E-01  1.014E+05  0.000E+00  0.000E+00  2.931E+02  3.518E+02
  0.000E+00  3.630E-01  1.014E+05  0.000E+00  0.000E+00  2.931E+02  3.473E+02
  0.000E+00  3.693E-01  1.014E+05  0.000E+00  0.000E+00  2.931E+02  3.431E+02
  0.000E+00  3.756E-01  1.014E+05  0.000E+00  0.000E+00  2.931E+02  3.392E+02
  0.000E+00  3.819E-01  1.014E+05  0.000E+00  0.000E+00  2.931E+02  3.356E+02
  0.000E+00  3.882E-01  1.014E+05  0.000E+00  0.000E+00  2.931E+02  3.323E+02
  0.000E+00  3.945E-01  1.014E+05  0.000E+00  0.000E+00  2.931E+02  3.293E+02
  0.000E+00  4.008E-01  1.014E+05  0.000E+00  0.000E+00  2.931E+02  3.265E+02
  0.000E+00  4.072E-01  1.014E+05  0.000E+00  0.000E+00  2.931E+02  3.239E+02
  0.000E+00  4.135E-01  1.014E+05  0.000E+00  0.000E+00  2.931E+02  3.216E+02
  0.000E+00  4.198E-01  1.014E+05  0.000E+00  0.000E+00  2.931E+02  3.194E+02
  0.000E+00  4.261E-01  1.014E+05  0.000E+00  0.000E+00  2.931E+02  3.175E+02
  0.000E+00  4.324E-01  1.014E+05  0.000E+00  0.000E+00  2.931E+02  3.158E+02
  0.000E+00  4.387E-01  1.014E+05  0.000E+00  0.000E+00  2.931E+02  3.143E+02
  0.000E+00  4.450E-01  1.014E+05  0.000E+00  0.000E+00  2.931E+02  3.130E+02
  0.000E+00  4.513E-01  1.014E+05  0.000E+00  0.000E+00  2.931E+02  3.118E+02
  0.000E+00  4.577E-01  1.014E+05  0.000E+00  0.000E+00  2.931E+02  3.109E+02
  0.000E+00  4.640E-01  1.013E+05  0.000E+00  0.000E+00  2.931E+02  3.101E+02
  0.000E+00  4.703E-01  1.013E+05  0.000E+00  0.000E+00  2.931E+02  3.094E+02
  0.000E+00  4.766E-01  1.013E+05  0.000E+00  0.000E+00  2.931E+02  3.089E+02
  0.000E+00  4.829E-01  1.013E+05  0.000E+00  0.000E+00  2.931E+02  3.085E+02
  0.000E+00  4.892E-01  1.013E+05  0.000E+00  0.000E+00  2.931E+02  3.082E+02
  0.000E+00  4.955E-01  1.013E+05  0.000E+00  0.000E+00  2.931E+02  3.080E+02
  0.000E+00  5.018E-01  1.013E+05  0.000E+00  0.000E+00  2.931E+02  3.079E+02
  0.000E+00  5.050E-01  1.013E+05  0.000E+00  0.000E+00  2.931E+02  3.079E+02
  4.000E-03  0.000E+00  1.016E+05  6.932E-07  6.500E-02  2.937E+02  7.943E+02
  4.000E-03  3.156E-03  1.016E+05  6.932E-07  1.905E-02  2.937E+02  7.943E+02
  4.000E-03  9.469E-03  1.016E+05  3.149E-07  3.481E-02  2.937E+02  7.950E+02
  4.000E-03  1.578E-02  1.016E+05  1.641E-07  3.211E-02  2.937E+02  7.964E+02
  4.000E-03  2.209E-02  1.016E+05  9.303E-08  3.257E-02  2.937E+02  7.985E+02
  4.000E-03  2.841E-02  1.016E+05  5.510E-08  3.249E-02  2.937E+02  8.013E+02
  4.000E-03  3.472E-02  1.016E+05  3.489E-08  3.250E-02  2.937E+02  8.049E+02
  4.000E-03  4.103E-02  1.016E+05  2.313E-08  3.250E-02  2.938E+02  8.092E+02
  4.000E-03  4.734E-02  1.016E+05  1.602E-08  3.250E-02  2.938E+02  8.143E+02
  4.000E-03  5.366E-02  1.016E+05  1.136E-08  3.250E-02  2.939E+02  8.202E+02
  4.000E-03  5.997E-02  1.016E+05  8.219E-09  3.250E-02  2.941E+02  8.270E+02
  4.000E-03  6.628E-02  1.016E+05  6.144E-09  3.250E-02  2.943E+02  8.344E+02
  4.000E-03  7.259E-02  1.016E+05  4.634E-09  3.250E-02  2.947E+02  8.426E+02
  4.000E-03  7.891E-02  1.016E+05  3.469E-09  3.250E-02  2.952E+02  8.514E+02
  4.000E-03  8.522E-02  1.016E+05  2.635E-09  3.250E-02  2.960E+02  8.609E+02
  4.000E-03  9.153E-02  1.015E+05  2.046E-09  3.250E-02  2.971E+02  8.712E+02
  4.000E-03  9.784E-02  1.015E+05  1.583E-09  3.250E-02  2.985E+02  8.824E+02
  4.000E-03  1.042E-01  1.015E+05  1.213E-09  3.250E-02  3.001E+02  8.944E+02
  4.000E-03  1.105E-01  1.015E+05  9.389E-10  3.250E-02  2.984E+02  8.703E+02
  4.000E-03  1.168E-01  1.015E+05  7.272E-10  3.250E-02  2.970E+02  8.467E+02
  4.000E-03  1.231E-01  1.015E+05  5.427E-10  3.250E-02  2.959E+02  8.238E+02
  4.000E-03  1.294E-01  1.015E+05  3.877E-10  3.250E-02  2.951E+02  8.017E+02
  4.000E-03  1.357E-01  1.015E+05  2.939E-10  3.250E-02  2.945E+02  7.802E+02
  4.000E-03  1.420E-01  1.015E+05  2.713E-10  3.250E-02  2.941E+02  7.594E+02
  4.000E-03  1.483E-01  1.015E+05  2.489E-10  3.250E-02  2.938E+02  7.391E+02
  4.000E-03  1.547E-01  1.015E+05  1.480E-10  3.250E-02  2.936E+02  7.195E+02
  4.000E-03  1.610E-01  1.015E+05  2.959E-11  3.250E-02  2.935E+02  7.005E+02
  4.000E-03  1.673E-01  1.015E+05  3.761E-11  3.250E-02  2.934E+02  6.821E+02
  4.000E-03  1.736E-01  1.015E+05  1.704E-10  3.250E-02  2.934E+02  6.642E+02
  4.000E-03  1.799E-01  1.015E+05  2.421E-10  3.250E-02  2.933E+02  6.468E+02
  4.000E-03  1.862E-01  1.015E+05  1.237E-10  3.250E-02  2.933E+02  6.300E+02
  4.000E-03  1.925E-01  1.015E+05 -8.266E-11  3.250E-02  2.933E+02  6.138E+02
  4.000E-03  1.988E-01  1.015E+05 -1.710E-10  3.250E-02  2.933E+02  5.980E+02
  4.000E-03  2.052E-01  1.015E+05 -7.060E-11  3.250E-02  2.932E+02  5.827E+02
  4.000E-03  2.115E-01  1.015E+05  9.958E-11  3.250E-02  2.932E+02  5.679E+02
  4.000E-03  2.178E-01  1.015E+05  1.818E-10  3.250E-02  2.932E+02  5.535E+02
  4.000E-03  2.241E-01  1.015E+05  1.306E-10  3.250E-02  2.932E+02  5.396E+02
  4.000E-03  2.304E-01  1.015E+05  1.635E-11  3.250E-02  2.932E+02  5.262E+02
  4.000E-03  2.367E-01  1.015E+05 -6.862E-11  3.250E-02  2.932E+02  5.133E+02
  4.000E-03  2.430E-01  1.015E+05 -8.628E-11  3.250E-02  2.932E+02  5.008E+02
  4.000E-03  2.493E-01  1.015E+05 -5.601E-11  3.250E-02  2.932E+02  4.888E+02
  4.000E-03  2.557E-01  1.015E+05 -1.496E-11  3.250E-02  2.932E+02  4.773E+02
  4.000E-03  2.620E-01  1.015E+05  1.364E-11  3.250E-02  2.932E+02  4.662E+02
  4.000E-03  2.683E-01  1.015E+05  2.591E-11  3.250E-02  2.932E+02  4.556E+02
  4.000E-03  2.746E-01  1.015E+05  2.710E-11  3.250E-02  2.932E+02  4.454E+02
  4.000E-03  2.809E-01  1.014E+05  2.294E-11  3.250E-02  2.932E+02  4.357E+02
  4.000E-03  2.872E-01  1.014E+05  1.607E-11  3.250E-02  2.932E+02  4.265E+02
  4.000E-03  2.935E-01  1.014E+05  8.577E-12  3.250E-02  2.932E+02  4.177E+02
  4.000E-03  2.998E-01  1.014E+05  2.338E-12  3.250E-02  2.931E+02  4.093E+02
  4.000E-03  3.062E-01  1.014E+05 -1.006E-12  3.250E-02  2.931E+02  4.013E+02
  4.000E-03  3.125E-01  1.014E+05 -6.353E-13  3.250E-02  2.931E+02  3.937E+02
  4.000E-03  3.188E-01  1.014E+05  2.576E-12  3.250E-02  2.931E+02  3.865E+02
  4.000E-03  3.251E-01  1.014E+05  6.864E-12  3.250E-02  2.931E+02  3.797E+02
  4.000E-03  3.314E-01  1.014E+05  1.111E-11  3.250E-02  2.931E+02  3.734E+02
  4.000E-03  3.377E-01  1.014E+05  1.437E-11  3.250E-02  2.931E+02  3.674E+02
  4.000E-03  3.440E-01  1.014E+05  1.706E-11  3.250E-02  2.931E+02  3.619E+02
  4.000E-03  3.503E-01  1.014E+05  2.045E-11  3.250E-02  2.931E+02  3.567E+02
  4.000E-03  3.567E-01  1.014E+05  2.534E-11  3.250E-02  2.931E+02  3.518E+02
  4.000E-03  3.630E-01  1.014E+05  3.277E-11  3.250E-02  2.931E+02  3.473E+02
  4.000E-03  3.693E-01  1.014E+05  4.287E-11  3.250E-02  2.931E+02  3.431E+02
  4.000E-03  3.756E-01  1.014E+05  5.599E-11  3.250E-02  2.931E+02  3.392E+02
  4.000E-03  3.819E-01  1.014E+05  7.229E-11  3.250E-02  2.931E+02  3.356E+02
  4.000E-03  3.882E-01  1.014E+05  9.298E-11  3.250E-02  2.931E+02  3.323E+02
  4.000E-03  3.945E-01  1.014E+05  1.197E-10  3.250E-02  2.931E+02  3.293E+02
  4.000E-03  4.008E-01  1.014E+05  1.551E-10  3.250E-02  2.931E+02  3.265E+02
  4.000E-03  4.072E-01  1.014E+05  2.022E-10  3.250E-02  2.931E+02  3.239E+02
  4.000E-03  4.135E-01  1.014E+05  2.657E-10  3.250E-02  2.931E+02  3.216E+02
  4.000E-03  4.198E-01  1.014E+05  3.511E-10  3.250E-02  2.931E+02  3.194E+02
  4.000E-03  4.261E-01  1.014E+05  4.678E-10  3.250E-02  2.931E+02  3.175E+02
  4.000E-03  4.324E-01  1.014E+05  6.300E-10  3.250E-02  2.931E+02  3.158E+02
  4.000E-03  4.387E-01  1.014E+05  8.616E-10  3.250E-02  2.931E+02  3.143E+02
  4.000E-03  4.450E-01  1.014E+05  1.203E-09  3.250E-02  2.931E+02  3.130E+02
  4.000E-03  4.513E-01  1.014E+05  1.723E-09  3.250E-02  2.931E+02  3.118E+02
  4.000E-03  4.577E-01  1.014E+05  2.558E-09  3.250E-02  2.931E+02  3.109E+02
  4.000E-03  4.640E-01  1.013E+05  3.935E-09  3.250E-02  2.931E+02  3.101E+02
  4.000E-03  4.703E-01  1.013E+05  6.479E-09  3.250E-02  2.931E+02  3.094E+02
  4.000E-03  4.766E-01  1.013E+05  1.067E-08  3.253E-02  2.931E+02  3.089E+02
  4.000E-03  4.829E-01  1.013E+05  2.171E-08  3.234E-02  2.931E+02  3.085E+02
  4.000E-03  4.892E-01  1.013E+05  3.197E-08  3.346E-02  2.931E+02  3.082E+02
  4.000E-03  4.955E-01  1.013E+05  1.038E-07  2.693E-02  2.931E+02  3.080E+02
  4.000E-03  5.018E-01  1.013E+05  1.384E-07  6.500E-02  2.931E+02  3.079E+02
  4.000E-03  5.050E-01  1.013E+05  1.384E-07  6.500E-02  2.931E+02  3.079E+02
  1.200E-02  0.000E+00  1.016E+05  9.851E-07  6.500E-02  2.937E+02  7.945E+02
  1.200E-02  3.156E-03  1.016E+05  9.851E-07  1.905E-02  2.937E+02  7.945E+02
  1.200E-02  9.469E-03  1.016E+05  5.289E-07  3.481E-02  2.937E+02  7.951E+02
  1.200E-02  1.578E-02  1.016E+05  3.158E-07  3.211E-02  2.937E+02  7.965E+02
  1.200E-02  2.209E-02  1.016E+05  1.985E-07  3.257E-02  2.937E+02  7.986E+02
  1.200E-02  2.841E-02  1.016E+05  1.287E-07  3.249E-02  2.937E+02  8.015E+02
  1.200E-02  3.472E-02  1.016E+05  8.685E-08  3.251E-02  2.937E+02  8.050E+02
  1.200E-02  4.103E-02  1.016E+05  6.035E-08  3.251E-02  2.938E+02  8.093E+02
  1.200E-02  4.734E-02  1.016E+05  4.285E-08  3.251E-02  2.938E+02  8.144E+02
  1.200E-02  5.366E-02  1.016E+05  3.114E-08  3.251E-02  2.939E+02  8.204E+02
  1.200E-02  5.997E-02  1.016E+05  2.316E-08  3.251E-02  2.941E+02  8.271E+02
  1.200E-02  6.628E-02  1.016E+05  1.722E-08  3.251E-02  2.943E+02  8.345E+02
  1.200E-02  7.259E-02  1.016E+05  1.293E-08  3.251E-02  2.947E+02  8.426E+02
  1.200E-02  7.891E-02  1.016E+05  9.956E-09  3.251E-02  2.952E+02  8.514E+02
  1.200E-02  8.522E-02  1.016E+05  7.636E-09  3.251E-02  2.960E+02  8.609E+02
  1.200E-02  9.153E-02  1.015E+05  5.775E-09  3.251E-02  2.971E+02  8.711E+02
  1.200E-02  9.784E-02  1.015E+05  4.439E-09  3.251E-02  2.985E+02  8.823E+02
  1.200E-02  1.042E-01  1.015E+05  3.520E-09  3.251E-02  3.001E+02  8.944E+02
  1.200E-02  1.105E-01  1.015E+05  2.810E-09  3.251E-02  2.984E+02  8.702E+02
  1.200E-02  1.168E-01  1.015E+05  2.202E-09  3.251E-02  2.970E+02  8.467E+02
  1.200E-02  1.231E-01  1.015E+05  1.674E-09  3.251E-02  2.959E+02  8.238E+02
  1.200E-02  1.294E-01  1.015E+05  1.251E-09  3.251E-02  2.951E+02  8.016E+02
  1.200E-02  1.357E-01  1.015E+05  9.640E-10  3.251E-02  2.945E+02  7.802E+02
  1.200E-02  1.420E-01  1.015E+05  7.478E-10  3.251E-02  2.941E+02  7.593E+02
  1.200E-02  1.483E-01  1.015E+05  5.147E-10  3.251E-02  2.938E+02  7.390E+02
  1.200E-02  1.547E-01  1.015E+05  3.310E-10  3.251E-02  2.936E+02  7.194E+02
  1.200E-02  1.610E-01  1.015E+05  3.213E-10  3.251E-02  2.935E+02  7.004E+02
  1.200E-02  1.673E-01  1.015E+05  4.048E-10  3.251E-02  2.934E+02  6.820E+02
  1.200E-02  1.736E-01  1.015E+05  3.581E-10  3.251E-02  2.934E+02  6.640E+02
  1.200E-02  1.799E-01  1.015E+05  1.470E-10  3.251E-02  2.933E+02  6.467E+02
  1.200E-02  1.862E-01  1.015E+05 -4.748E-12  3.251E-02  2.933E+02  6.298E+02
  1.200E-02  1.925E-01  1.015E+05  7.228E-11  3.251E-02  2.933E+02  6.135E+02
  1.200E-02  1.988E-01  1.015E+05  2.610E-10  3.251E-02  2.933E+02  5.977E+02
  1.200E-02  2.052E-01  1.015E+05  3.111E-10  3.251E-02  2.933E+02  5.824E+02
  1.200E-02  2.115E-01  1.015E+05  1.381E-10  3.251E-02  2.932E+02  5.676E+02
  1.200E-02  2.178E-01  1.015E+05 -1.062E-10  3.251E-02  2.932E+02  5.533E+02
  1.200E-02  2.241E-01  1.015E+05 -2.209E-10  3.251E-02  2.932E+02  5.394E+02
  1.200E-02  2.304E-01  1.015E+05 -1.494E-10  3.251E-02  2.932E+02  5.260E+02
  1.200E-02  2.367E-01  1.015E+05  1.012E-11  3.251E-02  2.932E+02  5.130E+02
  1.200E-02  2.430E-01  1.015E+05  1.285E-10  3.251E-02  2.932E+02  5.006E+02
  1.200E-02  2.493E-01  1.015E+05  1.511E-10  3.251E-02  2.932E+02  4.886E+02
  1.200E-02  2.557E-01  1.015E+05  1.061E-10  3.251E-02  2.932E+02  4.770E+02
  1.200E-02  2.620E-01  1.015E+05  4.880E-11  3.251E-02  2.932E+02  4.659E+02
  1.200E-02  2.683E-01  1.015E+05  1.265E-11  3.251E-02  2.932E+02  4.553E+02
  1.200E-02  2.746E-01  1.015E+05 -6.001E-13  3.251E-02  2.932E+02  4.451E+02
  1.200E-02  2.809E-01  1.014E+05 -3.293E-12  3.251E-02  2.932E+02  4.354E+02
  1.200E-02  2.872E-01  1.014E+05 -5.203E-12  3.251E-02  2.932E+02  4.261E+02
  1.200E-02  2.935E-01  1.014E+05 -7.331E-12  3.251E-02  2.932E+02  4.173E+02
  1.200E-02  2.998E-01  1.014E+05 -6.176E-12  3.251E-02  2.932E+02  4.090E+02
  1.200E-02  3.062E-01  1.014E+05 -1.336E-14  3.251E-02  2.932E+02  4.010E+02
  1.200E-02  3.125E-01  1.014E+05  9.649E-12  3.251E-02  2.932E+02  3.934E+02
  1.200E-02  3.188E-01  1.014E+05  1.955E-11  3.251E-02  2.932E+02  3.862E+02
  1.200E-02  3.251E-01  1.014E+05  2.703E-11  3.251E-02  2.932E+02  3.795E+02
  1.200E-02  3.314E-01  1.014E+05  3.232E-11  3.251E-02  2.932E+02  3.731E+02
  1.200E-02  3.377E-01  1.014E+05  3.744E-11  3.251E-02  2.931E+02  3.671E+02
  1.200E-02  3.440E-01  1.014E+05  4.497E-11  3.251E-02  2.931E+02  3.616E+02
  1.200E-02  3.503E-01  1.014E+05  5.714E-11  3.251E-02  2.931E+02  3.564E+02
  1.200E-02  3.567E-01  1.014E+05  7.450E-11  3.251E-02  2.931E+02  3.516E+02
  1.200E-02  3.630E-01  1.014E+05  9.764E-11  3.251E-02  2.931E+02  3.471E+02
  1.200E-02  3.693E-01  1.014E+05  1.264E-10  3.251E-02  2.931E+02  3.429E+02
  1.200E-02  3.756E-01  1.014E+05  1.623E-10  3.251E-02  2.931E+02  3.390E+02
  1.200E-02  3.819E-01  1.014E+05  2.079E-10  3.251E-02  2.931E+02  3.354E+02
  1.200E-02  3.882E-01  1.014E+05  2.671E-10  3.251E-02  2.931E+02  3.321E+02
  1.200E-02  3.945E-01  1.014E+05  3.448E-10  3.251E-02  2.931E+02  3.291E+02
  1.200E-02  4.008E-01  1.014E+05  4.472E-10  3.251E-02  2.931E+02  3.263E+02
  1.200E-02  4.072E-01  1.014E+05  5.822E-10  3.251E-02  2.931E+02  3.238E+02
  1.200E-02  4.135E-01  1.014E+05  7.609E-10  3.251E-02  2.931E+02  3.214E+02
  1.200E-02  4.198E-01  1.014E+05  9.991E-10  3.251E-02  2.931E+02  3.193E+02
  1.200E-02  4.261E-01  1.014E+05  1.322E-09  3.251E-02  2.931E+02  3.173E+02
  1.200E-02  4.324E-01  1.014E+05  1.765E-09  3.251E-02  2.931E+02  3.157E+02
  1.200E-02  4.387E-01  1.014E+05  2.385E-09  3.251E-02  2.931E+02  3.142E+02
  1.200E-02  4.450E-01  1.014E+05  3.274E-09  3.251E-02  2.931E+02  3.129E+02
  1.200E-02  4.513E-01  1.014E+05  4.577E-09  3.251E-02  2.931E+02  3.117E+02
  1.200E-02  4.577E-01  1.014E+05  6.550E-09  3.251E-02  2.931E+02  3.108E+02
  1.200E-02  4.640E-01  1.013E+05  9.607E-09  3.251E-02  2.931E+02  3.100E+02
  1.200E-02  4.703E-01  1.013E+05  1.468E-08  3.250E-02  2.931E+02  3.094E+02
  1.200E-02  4.766E-01  1.013E+05  2.260E-08  3.253E-02  2.931E+02  3.088E+02
  1.200E-02  4.829E-01  1.013E+05  3.942E-08  3.234E-02  2.931E+02  3.084E+02
  1.200E-02  4.892E-01  1.013E+05  5.673E-08  3.346E-02  2.931E+02  3.081E+02
  1.200E-02  4.955E-01  1.013E+05  1.390E-07  2.693E-02  2.931E+02  3.080E+02
  1.200E-02  5.018E-01  1.013E+05  1.832E-07  6.500E-02  2.931E+02  3.079E+02
  1.200E-02  5.050E-01  1.013E+05  1.832E-07  6.500E-02  2.931E+02  3.079E+02
  2.000E-02  0.000E+00  1.016E+05  5.043E-07  6.500E-02  2.936E+02  7.948E+02
  2.000E-02  3.156E-03  1.016E+05  5.043E-07  1.905E-02  2.936E+02  7.948E+02
  2.000E-02  9.469E-03  1.016E+05  3.881E-07  3.481E-02  2.937E+02  7.955E+02
  2.000E-02  1.578E-02  1.016E+05  2.878E-07  3.211E-02  2.937E+02  7.968E+02
  2.000E-02  2.209E-02  1.016E+05  2.090E-07  3.257E-02  2.937E+02  7.989E+02
  2.000E-02  2.841E-02  1.016E+05  1.514E-07  3.249E-02  2.937E+02  8.017E+02
  2.000E-02  3.472E-02  1.016E+05  1.102E-07  3.251E-02  2.937E+02  8.053E+02
  2.000E-02  4.103E-02  1.016E+05  8.092E-08  3.251E-02  2.938E+02  8.096E+02
  2.000E-02  4.734E-02  1.016E+05  5.998E-08  3.251E-02  2.938E+02  8.147E+02
  2.000E-02  5.366E-02  1.016E+05  4.486E-08  3.251E-02  2.939E+02  8.207E+02
  2.000E-02  5.997E-02  1.016E+05  3.390E-08  3.251E-02  2.940E+02  8.273E+02
  2.000E-02  6.628E-02  1.016E+05  2.571E-08  3.251E-02  2.943E+02  8.346E+02
  2.000E-02  7.259E-02  1.016E+05  1.960E-08  3.251E-02  2.947E+02  8.426E+02
  2.000E-02  7.891E-02  1.016E+05  1.510E-08  3.251E-02  2.953E+02  8.513E+02
  2.000E-02  8.522E-02  1.016E+05  1.166E-08  3.251E-02  2.960E+02  8.608E+02
  2.000E-02  9.153E-02  1.015E+05  9.030E-09  3.251E-02  2.971E+02  8.710E+02
  2.000E-02  9.784E-02  1.015E+05  7.041E-09  3.251E-02  2.985E+02  8.822E+02
  2.000E-02  1.042E-01  1.015E+05  5.486E-09  3.251E-02  3.001E+02  8.943E+02
  2.000E-02  1.105E-01  1.015E+05  4.262E-09  3.251E-02  2.984E+02  8.702E+02
  2.000E-02  1.168E-01  1.015E+05  3.323E-09  3.251E-02  2.970E+02  8.467E+02
  2.000E-02  1.231E-01  1.015E+05  2.593E-09  3.251E-02  2.959E+02  8.238E+02
  2.000E-02  1.294E-01  1.015E+05  1.996E-09  3.251E-02  2.951E+02  8.016E+02
  2.000E-02  1.357E-01  1.015E+05  1.536E-09  3.251E-02  2.945E+02  7.801E+02
  2.000E-02  1.420E-01  1.015E+05  1.220E-09  3.251E-02  2.941E+02  7.592E+02
  2.000E-02  1.483E-01  1.015E+05  9.371E-10  3.251E-02  2.938E+02  7.389E+02
  2.000E-02  1.547E-01  1.015E+05  5.867E-10  3.251E-02  2.936E+02  7.193E+02
  2.000E-02  1.610E-01  1.015E+05  2.959E-10  3.251E-02  2.935E+02  7.002E+02
  2.000E-02  1.673E-01  1.015E+05  2.880E-10  3.251E-02  2.934E+02  6.817E+02
  2.000E-02  1.736E-01  1.015E+05  5.310E-10  3.251E-02  2.934E+02  6.638E+02
  2.000E-02  1.799E-01  1.015E+05  7.033E-10  3.251E-02  2.933E+02  6.464E+02
  2.000E-02  1.862E-01  1.015E+05  5.508E-10  3.251E-02  2.933E+02  6.295E+02
  2.000E-02  1.925E-01  1.015E+05  1.603E-10  3.251E-02  2.933E+02  6.131E+02
  2.000E-02  1.988E-01  1.015E+05 -1.646E-10  3.251E-02  2.933E+02  5.973E+02
  2.000E-02  2.052E-01  1.015E+05 -2.204E-10  3.251E-02  2.932E+02  5.820E+02
  2.000E-02  2.115E-01  1.015E+05 -5.048E-11  3.251E-02  2.932E+02  5.672E+02
  2.000E-02  2.178E-01  1.015E+05  1.608E-10  3.251E-02  2.932E+02  5.528E+02
  2.000E-02  2.241E-01  1.015E+05  2.663E-10  3.251E-02  2.932E+02  5.389E+02
  2.000E-02  2.304E-01  1.015E+05  2.377E-10  3.251E-02  2.932E+02  5.255E+02
  2.000E-02  2.367E-01  1.015E+05  1.324E-10  3.251E-02  2.932E+02  5.126E+02
  2.000E-02  2.430E-01  1.015E+05  2.323E-11  3.251E-02  2.932E+02  5.001E+02
  2.000E-02  2.493E-01  1.015E+05 -4.533E-11  3.251E-02  2.932E+02  4.880E+02
  2.000E-02  2.557E-01  1.015E+05 -6.410E-11  3.251E-02  2.932E+02  4.765E+02
  2.000E-02  2.620E-01  1.015E+05 -4.738E-11  3.251E-02  2.932E+02  4.653E+02
  2.000E-02  2.683E-01  1.015E+05 -1.714E-11  3.251E-02  2.932E+02  4.547E+02
  2.000E-02  2.746E-01  1.015E+05  8.288E-12  3.251E-02  2.932E+02  4.445E+02
  2.000E-02  2.809E-01  1.014E+05  2.082E-11  3.251E-02  2.932E+02  4.348E+02
  2.000E-02  2.872E-01  1.014E+05  2.183E-11  3.251E-02  2.932E+02  4.255E+02
  2.000E-02  2.935E-01  1.014E+05  1.783E-11  3.251E-02  2.932E+02  4.167E+02
  2.000E-02  2.998E-01  1.014E+05  1.552E-11  3.251E-02  2.932E+02  4.084E+02
  2.000E-02  3.062E-01  1.014E+05  1.758E-11  3.251E-02  2.932E+02  4.004E+02
  2.000E-02  3.125E-01  1.014E+05  2.309E-11  3.251E-02  2.932E+02  3.929E+02
  2.000E-02  3.188E-01  1.014E+05  2.983E-11  3.251E-02  2.932E+02  3.857E+02
  2.000E-02  3.251E-01  1.014E+05  3.660E-11  3.251E-02  2.932E+02  3.789E+02
  2.000E-02  3.314E-01  1.014E+05  4.419E-11  3.251E-02  2.932E+02  3.726E+02
  2.000E-02  3.377E-01  1.014E+05  5.462E-11  3.251E-02  2.932E+02  3.666E+02
  2.000E-02  3.440E-01  1.014E+05  6.989E-11  3.251E-02  2.932E+02  3.611E+02
  2.000E-02  3.503E-01  1.014E+05  9.124E-11  3.251E-02  2.931E+02  3.559E+02
  2.000E-02  3.567E-01  1.014E+05  1.189E-10  3.251E-02  2.931E+02  3.511E+02
  2.000E-02  3.630E-01  1.014E+05  1.534E-10  3.251E-02  2.931E+02  3.466E+02
  2.000E-02  3.693E-01  1.014E+05  1.962E-10  3.251E-02  2.931E+02  3.425E+02
  2.000E-02  3.756E-01  1.014E+05  2.502E-10  3.251E-02  2.931E+02  3.386E+02
  2.000E-02  3.819E-01  1.014E+05  3.201E-10  3.251E-02  2.931E+02  3.351E+02
  2.000E-02  3.882E-01  1.014E+05  4.112E-10  3.251E-02  2.931E+02  3.318E+02
  2.000E-02  3.945E-01  1.014E+05  5.306E-10  3.251E-02  2.931E+02  3.288E+02
  2.000E-02  4.008E-01  1.014E+05  6.863E-10  3.251E-02  2.931E+02  3.260E+02
  2.000E-02  4.072E-01  1.014E+05  8.889E-10  3.251E-02  2.931E+02  3.235E+02
  2.000E-02  4.135E-01  1.014E+05  1.154E-09  3.251E-02  2.931E+02  3.211E+02
  2.000E-02  4.198E-01  1.014E+05  1.503E-09  3.251E-02  2.931E+02  3.190E+02
  2.000E-02  4.261E-01  1.014E+05  1.969E-09  3.251E-02  2.931E+02  3.171E+02
  2.000E-02  4.324E-01  1.014E+05  2.594E-09  3.251E-02  2.931E+02  3.154E+02
  2.000E-02  4.387E-01  1.014E+05  3.445E-09  3.251E-02  2.931E+02  3.139E+02
  2.000E-02  4.450E-01  1.014E+05  4.614E-09  3.251E-02  2.931E+02  3.127E+02
  2.000E-02  4.513E-01  1.014E+05  6.238E-09  3.251E-02  2.931E+02  3.116E+02
  2.000E-02  4.577E-01  1.014E+05  8.524E-09  3.251E-02  2.931E+02  3.106E+02
  2.000E-02  4.640E-01  1.013E+05  1.177E-08  3.251E-02  2.931E+02  3.098E+02
  2.000E-02  4.703E-01  1.013E+05  1.641E-08  3.250E-02  2.931E+02  3.092E+02
  2.000E-02  4.766E-01  1.013E+05  2.292E-08  3.253E-02  2.931E+02  3.087E+02
  2.000E-02  4.829E-01  1.013E+05  3.230E-08  3.234E-02  2.931E+02  3.083E+02
  2.000E-02  4.892E-01  1.013E+05  4.324E-08  3.346E-02  2.931E+02  3.080E+02
  2.000E-02  4.955E-01  1.013E+05  5.707E-08  2.693E-02  2.931E+02  3.079E+02
  2.000E-02  5.018E-01  1.013E+05  7.103E-08  6.500E-02  2.931E+02  3.078E+02
  2.000E-02  5.050E-01  1.013E+05  7.103E-08  6.500E-02  2.931E+02  3.078E+02
  2.800E-02  0.000E+00  1.016E+05  3.589E-07  6.500E-02  2.936E+02  7.952E+02
  2.800E-02  3.156E-03  1.016E+05  3.589E-07  1.905E-02  2.936E+02  7.952E+02
  2.800E-02  9.469E-03  1.016E+05  3.051E-07  3.481E-02  2.936E+02  7.959E+02
  2.800E-02  1.578E-02  1.016E+05  2.469E-07  3.211E-02  2.936E+02  7.972E+02
  2.800E-02  2.209E-02  1.016E+05  1.936E-07  3.257E-02  2.936E+02  7.993E+02
  2.800E-02  2.841E-02  1.016E+05  1.496E-07  3.249E-02  2.937E+02  8.021E+02
  2.800E-02  3.472E-02  1.016E+05  1.148E-07  3.251E-02  2.937E+02  8.056E+02
  2.800E-02  4.103E-02  1.016E+05  8.784E-08  3.251E-02  2.937E+02  8.100E+02
  2.800E-02  4.734E-02  1.016E+05  6.727E-08  3.251E-02  2.938E+02  8.152E+02
  2.800E-02  5.366E-02  1.016E+05  5.162E-08  3.251E-02  2.939E+02  8.210E+02
  2.800E-02  5.997E-02  1.016E+05  3.976E-08  3.251E-02  2.940E+02  8.276E+02
  2.800E-02  6.628E-02  1.016E+05  3.058E-08  3.251E-02  2.943E+02  8.348E+02
  2.800E-02  7.259E-02  1.016E+05  2.356E-08  3.251E-02  2.947E+02  8.426E+02
  2.800E-02  7.891E-02  1.016E+05  1.832E-08  3.251E-02  2.953E+02  8.512E+02
  2.800E-02  8.522E-02  1.016E+05  1.424E-08  3.251E-02  2.960E+02  8.607E+02
  2.800E-02  9.153E-02  1.015E+05  1.105E-08  3.251E-02  2.971E+02  8.710E+02
  2.800E-02  9.784E-02  1.015E+05  8.625E-09  3.251E-02  2.984E+02  8.823E+02
  2.800E-02  1.042E-01  1.015E+05  6.718E-09  3.251E-02  3.001E+02  8.944E+02
  2.800E-02  1.105E-01  1.015E+05  5.219E-09  3.251E-02  2.984E+02  8.702E+02
  2.800E-02  1.168E-01  1.015E+05  4.105E-09  3.251E-02  2.970E+02  8.467E+02
  2.800E-02  1.231E-01  1.015E+05  3.266E-09  3.251E-02  2.959E+02  8.238E+02
  2.800E-02  1.294E-01  1.015E+05  2.557E-09  3.251E-02  2.951E+02  8.015E+02
  2.800E-02  1.357E-01  1.015E+05  1.953E-09  3.251E-02  2.945E+02  7.799E+02
  2.800E-02  1.420E-01  1.015E+05  1.522E-09  3.251E-02  2.941E+02  7.590E+02
  2.800E-02  1.483E-01  1.015E+05  1.257E-09  3.251E-02  2.938E+02  7.387E+02
  2.800E-02  1.547E-01  1.015E+05  1.032E-09  3.251E-02  2.936E+02  7.191E+02
  2.800E-02  1.610E-01  1.015E+05  7.680E-10  3.251E-02  2.935E+02  7.000E+02
  2.800E-02  1.673E-01  1.015E+05  5.325E-10  3.251E-02  2.934E+02  6.814E+02
  2.800E-02  1.736E-01  1.015E+05  4.138E-10  3.251E-02  2.934E+02  6.633E+02
  2.800E-02  1.799E-01  1.015E+05  3.834E-10  3.251E-02  2.933E+02  6.458E+02
  2.800E-02  1.862E-01  1.015E+05  3.403E-10  3.251E-02  2.933E+02  6.289E+02
  2.800E-02  1.925E-01  1.015E+05  2.438E-10  3.251E-02  2.933E+02  6.125E+02
  2.800E-02  1.988E-01  1.015E+05  1.440E-10  3.251E-02  2.933E+02  5.967E+02
  2.800E-02  2.052E-01  1.015E+05  9.717E-11  3.251E-02  2.932E+02  5.814E+02
  2.800E-02  2.115E-01  1.015E+05  9.666E-11  3.251E-02  2.932E+02  5.665E+02
  2.800E-02  2.178E-01  1.015E+05  9.544E-11  3.251E-02  2.932E+02  5.521E+02
  2.800E-02  2.241E-01  1.015E+05  6.454E-11  3.251E-02  2.932E+02  5.382E+02
  2.800E-02  2.304E-01  1.015E+05  1.692E-11  3.251E-02  2.932E+02  5.248E+02
  2.800E-02  2.367E-01  1.015E+05 -1.672E-11  3.251E-02  2.932E+02  5.118E+02
  2.800E-02  2.430E-01  1.015E+05 -2.037E-11  3.251E-02  2.932E+02  4.993E+02
  2.800E-02  2.493E-01  1.015E+05 -7.779E-13  3.251E-02  2.932E+02  4.872E+02
  2.800E-02  2.557E-01  1.015E+05  2.408E-11  3.251E-02  2.932E+02  4.756E+02
  2.800E-02  2.620E-01  1.015E+05  3.976E-11  3.251E-02  2.932E+02  4.645E+02
  2.800E-02  2.683E-01  1.015E+05  4.207E-11  3.251E-02  2.932E+02  4.538E+02
  2.800E-02  2.746E-01  1.015E+05  3.448E-11  3.251E-02  2.932E+02  4.436E+02
  2.800E-02  2.809E-01  1.014E+05  2.360E-11  3.251E-02  2.932E+02  4.339E+02
  2.800E-02  2.872E-01  1.014E+05  1.542E-11  3.251E-02  2.932E+02  4.247E+02
  2.800E-02  2.935E-01  1.014E+05  1.264E-11  3.251E-02  2.932E+02  4.159E+02
  2.800E-02  2.998E-01  1.014E+05  1.524E-11  3.251E-02  2.932E+02  4.075E+02
  2.800E-02  3.062E-01  1.014E+05  2.117E-11  3.251E-02  2.932E+02  3.996E+02
  2.800E-02  3.125E-01  1.014E+05  2.827E-11  3.251E-02  2.932E+02  3.921E+02
  2.800E-02  3.188E-01  1.014E+05  3.521E-11  3.251E-02  2.932E+02  3.849E+02
  2.800E-02  3.251E-01  1.014E+05  4.294E-11  3.251E-02  2.932E+02  3.782E+02
  2.800E-02  3.314E-01  1.014E+05  5.318E-11  3.251E-02  2.932E+02  3.719E+02
  2.800E-02  3.377E-01  1.014E+05  6.822E-11  3.251E-02  2.932E+02  3.659E+02