VARIABLES="XP","YP","P","U","V","TS","TF"
ZONE T="Zone 001"I=    62 J=    22 F=POINT
  0.000E+00  0.000E+00  3.545E+00  0.000E+00  0.000E+00  1.918E+00  1.917E+00
  0.000E+00  4.208E-03  3.545E+00  0.000E+00  0.000E+00  1.918E+00  1.917E+00
  0.000E+00  1.262E-02  3.485E+00  0.000E+00  0.000E+00  1.945E+00  1.917E+00
  0.000E+00  2.104E-02  3.426E+00  0.000E+00  0.000E+00  1.999E+00  1.918E+00
  0.000E+00  2.946E-02  3.366E+00  0.000E+00  0.000E+00  2.078E+00  1.920E+00
  0.000E+00  3.787E-02  3.306E+00  0.000E+00  0.000E+00  2.182E+00  1.924E+00
  0.000E+00  4.629E-02  3.247E+00  0.000E+00  0.000E+00  2.311E+00  1.928E+00
  0.000E+00  5.471E-02  3.187E+00  0.000E+00  0.000E+00  2.466E+00  1.935E+00
  0.000E+00  6.313E-02  3.127E+00  0.000E+00  0.000E+00  2.646E+00  1.944E+00
  0.000E+00  7.154E-02  3.068E+00  0.000E+00  0.000E+00  2.854E+00  1.955E+00
  0.000E+00  7.996E-02  3.008E+00  0.000E+00  0.000E+00  3.089E+00  1.969E+00
  0.000E+00  8.838E-02  2.949E+00  0.000E+00  0.000E+00  3.353E+00  1.990E+00
  0.000E+00  9.679E-02  2.889E+00  0.000E+00  0.000E+00  3.647E+00  2.114E+00
  0.000E+00  1.052E-01  2.830E+00  0.000E+00  0.000E+00  3.973E+00  4.824E+00
  0.000E+00  1.136E-01  2.770E+00  0.000E+00  0.000E+00  3.649E+00  4.808E+00
  0.000E+00  1.220E-01  2.711E+00  0.000E+00  0.000E+00  3.350E+00  4.789E+00
  0.000E+00  1.305E-01  2.651E+00  0.000E+00  0.000E+00  3.074E+00  4.767E+00
  0.000E+00  1.389E-01  2.591E+00  0.000E+00  0.000E+00  2.821E+00  4.742E+00
  0.000E+00  1.473E-01  2.532E+00  0.000E+00  0.000E+00  2.590E+00  4.715E+00
  0.000E+00  1.557E-01  2.472E+00  0.000E+00  0.000E+00  2.381E+00  4.686E+00
  0.000E+00  1.641E-01  2.413E+00  0.000E+00  0.000E+00  2.192E+00  4.655E+00
  0.000E+00  1.725E-01  2.353E+00  0.000E+00  0.000E+00  2.023E+00  4.622E+00
  0.000E+00  1.810E-01  2.294E+00  0.000E+00  0.000E+00  1.872E+00  4.588E+00
  0.000E+00  1.894E-01  2.234E+00  0.000E+00  0.000E+00  1.738E+00  4.553E+00
  0.000E+00  1.978E-01  2.175E+00  0.000E+00  0.000E+00  1.619E+00  4.517E+00
  0.000E+00  2.062E-01  2.115E+00  0.000E+00  0.000E+00  1.515E+00  4.480E+00
  0.000E+00  2.146E-01  2.055E+00  0.000E+00  0.000E+00  1.424E+00  4.443E+00
  0.000E+00  2.230E-01  1.996E+00  0.000E+00  0.000E+00  1.345E+00  4.405E+00
  0.000E+00  2.315E-01  1.936E+00  0.000E+00  0.000E+00  1.276E+00  4.366E+00
  0.000E+00  2.399E-01  1.877E+00  0.000E+00  0.000E+00  1.217E+00  4.328E+00
  0.000E+00  2.483E-01  1.817E+00  0.000E+00  0.000E+00  1.165E+00  4.289E+00
  0.000E+00  2.567E-01  1.758E+00  0.000E+00  0.000E+00  1.121E+00  4.251E+00
  0.000E+00  2.651E-01  1.698E+00  0.000E+00  0.000E+00  1.083E+00  4.212E+00
  0.000E+00  2.735E-01  1.639E+00  0.000E+00  0.000E+00  1.051E+00  4.173E+00
  0.000E+00  2.820E-01  1.579E+00  0.000E+00  0.000E+00  1.023E+00  4.135E+00
  0.000E+00  2.904E-01  1.519E+00  0.000E+00  0.000E+00  9.984E-01  4.097E+00
  0.000E+00  2.988E-01  1.460E+00  0.000E+00  0.000E+00  9.775E-01  4.059E+00
  0.000E+00  3.072E-01  1.400E+00  0.000E+00  0.000E+00  9.594E-01  4.021E+00
  0.000E+00  3.156E-01  1.341E+00  0.000E+00  0.000E+00  9.435E-01  3.984E+00
  0.000E+00  3.240E-01  1.281E+00  0.000E+00  0.000E+00  9.294E-01  3.947E+00
  0.000E+00  3.325E-01  1.222E+00  0.000E+00  0.000E+00  9.169E-01  3.910E+00
  0.000E+00  3.409E-01  1.162E+00  0.000E+00  0.000E+00  9.057E-01  3.874E+00
  0.000E+00  3.493E-01  1.102E+00  0.000E+00  0.000E+00  8.955E-01  3.837E+00
  0.000E+00  3.577E-01  1.043E+00  0.000E+00  0.000E+00  8.860E-01  3.802E+00
  0.000E+00  3.661E-01  9.834E-01  0.000E+00  0.000E+00  8.773E-01  3.766E+00
  0.000E+00  3.745E-01  9.238E-01  0.000E+00  0.000E+00  8.691E-01  3.731E+00
  0.000E+00  3.830E-01  8.643E-01  0.000E+00  0.000E+00  8.614E-01  3.696E+00
  0.000E+00  3.914E-01  8.047E-01  0.000E+00  0.000E+00  8.541E-01  3.662E+00
  0.000E+00  3.998E-01  7.451E-01  0.000E+00  0.000E+00  8.472E-01  3.628E+00
  0.000E+00  4.082E-01  6.856E-01  0.000E+00  0.000E+00  8.407E-01  3.594E+00
  0.000E+00  4.166E-01  6.260E-01  0.000E+00  0.000E+00  8.347E-01  3.560E+00
  0.000E+00  4.250E-01  5.665E-01  0.000E+00  0.000E+00  8.292E-01  3.527E+00
  0.000E+00  4.335E-01  5.069E-01  0.000E+00  0.000E+00  8.245E-01  3.495E+00
  0.000E+00  4.419E-01  4.474E-01  0.000E+00  0.000E+00  8.208E-01  3.462E+00
  0.000E+00  4.503E-01  3.878E-01  0.000E+00  0.000E+00  8.183E-01  3.430E+00
  0.000E+00  4.587E-01  3.282E-01  0.000E+00  0.000E+00  8.173E-01  3.399E+00
  0.000E+00  4.671E-01  2.687E-01  0.000E+00  0.000E+00  8.180E-01  3.367E+00
  0.000E+00  4.755E-01  2.091E-01  0.000E+00  0.000E+00  8.201E-01  3.337E+00
  0.000E+00  4.840E-01  1.496E-01  0.000E+00  0.000E+00  8.233E-01  3.306E+00
  0.000E+00  4.924E-01  8.987E-02  0.000E+00  0.000E+00  8.265E-01  3.276E+00
  0.000E+00  5.008E-01  2.996E-02  0.000E+00  0.000E+00  8.285E-01  3.248E+00
  0.000E+00  5.050E-01  2.996E-02  0.000E+00  0.000E+00  8.285E-01  3.248E+00
  4.000E-03  0.000E+00  3.574E+00  3.282E-04  6.500E-02  1.918E+00  1.917E+00
  4.000E-03  4.208E-03  3.545E+00  3.282E-04  6.411E-02  1.918E+00  1.917E+00
  4.000E-03  1.262E-02  3.485E+00  1.815E-04  6.411E-02  1.945E+00  1.917E+00
  4.000E-03  2.104E-02  3.426E+00  8.794E-05  6.418E-02  1.999E+00  1.918E+00
  4.000E-03  2.946E-02  3.366E+00  4.416E-05  6.414E-02  2.078E+00  1.920E+00
  4.000E-03  3.787E-02  3.306E+00  2.329E-05  6.408E-02  2.182E+00  1.924E+00
  4.000E-03  4.629E-02  3.247E+00  1.271E-05  6.406E-02  2.311E+00  1.928E+00
  4.000E-03  5.471E-02  3.187E+00  7.296E-06  6.405E-02  2.466E+00  1.935E+00
  4.000E-03  6.313E-02  3.127E+00  4.532E-06  6.404E-02  2.646E+00  1.944E+00
  4.000E-03  7.154E-02  3.068E+00  2.869E-06  6.404E-02  2.854E+00  1.955E+00
  4.000E-03  7.996E-02  3.008E+00  1.812E-06  6.403E-02  3.089E+00  1.969E+00
  4.000E-03  8.838E-02  2.949E+00  1.316E-06  6.403E-02  3.353E+00  1.990E+00
  4.000E-03  9.679E-02  2.889E+00  8.553E-07  6.403E-02  3.647E+00  2.114E+00
  4.000E-03  1.052E-01  2.830E+00  5.378E-07  6.403E-02  3.973E+00  4.824E+00
  4.000E-03  1.136E-01  2.770E+00  3.849E-07  6.403E-02  3.649E+00  4.808E+00
  4.000E-03  1.220E-01  2.711E+00  2.045E-07  6.403E-02  3.350E+00  4.789E+00
  4.000E-03  1.305E-01  2.651E+00  1.251E-07  6.403E-02  3.074E+00  4.767E+00
  4.000E-03  1.389E-01  2.591E+00  1.779E-07  6.403E-02  2.821E+00  4.742E+00
  4.000E-03  1.473E-01  2.532E+00  1.793E-07  6.403E-02  2.590E+00  4.715E+00
  4.000E-03  1.557E-01  2.472E+00  7.626E-08  6.403E-02  2.381E+00  4.686E+00
  4.000E-03  1.641E-01  2.413E+00  3.316E-08  6.403E-02  2.192E+00  4.655E+00
  4.000E-03  1.725E-01  2.353E+00  2.877E-08  6.403E-02  2.023E+00  4.622E+00
  4.000E-03  1.810E-01  2.294E+00  2.372E-08  6.403E-02  1.872E+00  4.588E+00
  4.000E-03  1.894E-01  2.234E+00 -7.931E-08  6.403E-02  1.738E+00  4.553E+00
  4.000E-03  1.978E-01  2.175E+00 -2.327E-08  6.403E-02  1.619E+00  4.517E+00
  4.000E-03  2.062E-01  2.115E+00 -1.893E-09  6.403E-02  1.515E+00  4.480E+00
  4.000E-03  2.146E-01  2.055E+00  1.390E-09  6.403E-02  1.424E+00  4.443E+00
  4.000E-03  2.230E-01  1.996E+00  1.651E-09  6.403E-02  1.345E+00  4.405E+00
  4.000E-03  2.315E-01  1.936E+00  1.150E-09  6.403E-02  1.276E+00  4.366E+00
  4.000E-03  2.399E-01  1.877E+00 -4.814E-10  6.403E-02  1.217E+00  4.328E+00
  4.000E-03  2.483E-01  1.817E+00  1.598E-09  6.403E-02  1.165E+00  4.289E+00
  4.000E-03  2.567E-01  1.758E+00  4.937E-08  6.403E-02  1.121E+00  4.251E+00
  4.000E-03  2.651E-01  1.698E+00  1.702E-08  6.403E-02  1.083E+00  4.212E+00
  4.000E-03  2.735E-01  1.639E+00  3.683E-09  6.403E-02  1.051E+00  4.173E+00
  4.000E-03  2.820E-01  1.579E+00  9.152E-10  6.403E-02  1.023E+00  4.135E+00
  4.000E-03  2.904E-01  1.519E+00  1.935E-10  6.403E-02  9.984E-01  4.097E+00
  4.000E-03  2.988E-01  1.460E+00  1.970E-11  6.403E-02  9.775E-01  4.059E+00
  4.000E-03  3.072E-01  1.400E+00 -1.048E-11  6.403E-02  9.594E-01  4.021E+00
  4.000E-03  3.156E-01  1.341E+00 -1.240E-11  6.403E-02  9.435E-01  3.984E+00
  4.000E-03  3.240E-01  1.281E+00 -1.049E-11  6.403E-02  9.294E-01  3.947E+00
  4.000E-03  3.325E-01  1.222E+00 -8.453E-13  6.403E-02  9.169E-01  3.910E+00
  4.000E-03  3.409E-01  1.162E+00  1.540E-11  6.403E-02  9.057E-01  3.874E+00
  4.000E-03  3.493E-01  1.102E+00  2.963E-11  6.403E-02  8.955E-01  3.837E+00
  4.000E-03  3.577E-01  1.043E+00  4.141E-11  6.403E-02  8.860E-01  3.802E+00
  4.000E-03  3.661E-01  9.834E-01  7.831E-11  6.403E-02  8.773E-01  3.766E+00
  4.000E-03  3.745E-01  9.238E-01  1.071E-10  6.403E-02  8.691E-01  3.731E+00
  4.000E-03  3.830E-01  8.643E-01  1.537E-10  6.403E-02  8.614E-01  3.696E+00
  4.000E-03  3.914E-01  8.047E-01  7.480E-10  6.403E-02  8.541E-01  3.662E+00
  4.000E-03  3.998E-01  7.451E-01  2.868E-09  6.403E-02  8.472E-01  3.628E+00
  4.000E-03  4.082E-01  6.856E-01  1.967E-09  6.403E-02  8.407E-01  3.594E+00
  4.000E-03  4.166E-01  6.260E-01  2.087E-09  6.403E-02  8.347E-01  3.560E+00
  4.000E-03  4.250E-01  5.665E-01  4.163E-09  6.403E-02  8.292E-01  3.527E+00
  4.000E-03  4.335E-01  5.069E-01  2.820E-08  6.403E-02  8.245E-01  3.495E+00
  4.000E-03  4.419E-01  4.474E-01  1.359E-08  6.403E-02  8.208E-01  3.462E+00
  4.000E-03  4.503E-01  3.878E-01  2.343E-08  6.403E-02  8.183E-01  3.430E+00
  4.000E-03  4.587E-01  3.282E-01  3.236E-08  6.403E-02  8.173E-01  3.399E+00
  4.000E-03  4.671E-01  2.687E-01  6.119E-08  6.402E-02  8.180E-01  3.367E+00
  4.000E-03  4.755E-01  2.091E-01  2.059E-07  6.403E-02  8.201E-01  3.337E+00
  4.000E-03  4.840E-01  1.496E-01  5.786E-07  6.407E-02  8.233E-01  3.306E+00
  4.000E-03  4.924E-01  8.987E-02  9.395E-07  6.419E-02  8.265E-01  3.276E+00
  4.000E-03  5.008E-01  2.996E-02  5.084E-07  6.428E-02  8.285E-01  3.248E+00
  4.000E-03  5.050E-01  0.000E+00  5.084E-07  6.428E-02  8.285E-01  3.248E+00
  1.200E-02  0.000E+00  3.574E+00  2.665E-04  6.500E-02  1.918E+00  1.917E+00
  1.200E-02  4.208E-03  3.545E+00  2.665E-04  6.450E-02  1.918E+00  1.917E+00
  1.200E-02  1.262E-02  3.485E+00  1.647E-04  6.469E-02  1.945E+00  1.917E+00
  1.200E-02  2.104E-02  3.425E+00  9.116E-05  6.488E-02  1.999E+00  1.918E+00
  1.200E-02  2.946E-02  3.366E+00  5.166E-05  6.490E-02  2.078E+00  1.920E+00
  1.200E-02  3.787E-02  3.306E+00  3.028E-05  6.486E-02  2.182E+00  1.924E+00
  1.200E-02  4.629E-02  3.247E+00  1.820E-05  6.484E-02  2.311E+00  1.928E+00
  1.200E-02  5.471E-02  3.187E+00  1.128E-05  6.484E-02  2.466E+00  1.935E+00
  1.200E-02  6.313E-02  3.127E+00  7.215E-06  6.483E-02  2.646E+00  1.944E+00
  1.200E-02  7.154E-02  3.068E+00  4.714E-06  6.483E-02  2.854E+00  1.955E+00
  1.200E-02  7.996E-02  3.008E+00  3.156E-06  6.483E-02  3.089E+00  1.968E+00
  1.200E-02  8.838E-02  2.949E+00  2.168E-06  6.483E-02  3.353E+00  1.989E+00
  1.200E-02  9.679E-02  2.889E+00  1.484E-06  6.482E-02  3.647E+00  2.111E+00
  1.200E-02  1.052E-01  2.830E+00  1.017E-06  6.482E-02  3.973E+00  4.792E+00
  1.200E-02  1.136E-01  2.770E+00  7.076E-07  6.482E-02  3.649E+00  4.780E+00
  1.200E-02  1.220E-01  2.711E+00  4.864E-07  6.482E-02  3.350E+00  4.763E+00
  1.200E-02  1.305E-01  2.651E+00  3.535E-07  6.482E-02  3.074E+00  4.744E+00
  1.200E-02  1.389E-01  2.591E+00  2.605E-07  6.482E-02  2.821E+00  4.721E+00
  1.200E-02  1.473E-01  2.532E+00  1.770E-07  6.482E-02  2.590E+00  4.696E+00
  1.200E-02  1.557E-01  2.472E+00  1.216E-07  6.482E-02  2.381E+00  4.669E+00
  1.200E-02  1.641E-01  2.413E+00  7.630E-08  6.482E-02  2.192E+00  4.640E+00
  1.200E-02  1.725E-01  2.353E+00  5.522E-08  6.482E-02  2.023E+00  4.608E+00
  1.200E-02  1.810E-01  2.294E+00  4.311E-08  6.482E-02  1.872E+00  4.576E+00
  1.200E-02  1.894E-01  2.234E+00  3.042E-08  6.482E-02  1.738E+00  4.542E+00
  1.200E-02  1.978E-01  2.175E+00  1.923E-08  6.482E-02  1.620E+00  4.507E+00
  1.200E-02  2.062E-01  2.115E+00  1.393E-08  6.482E-02  1.515E+00  4.471E+00
  1.200E-02  2.146E-01  2.055E+00  8.848E-09  6.482E-02  1.424E+00  4.434E+00
  1.200E-02  2.230E-01  1.996E+00  5.914E-09  6.482E-02  1.345E+00  4.397E+00
  1.200E-02  2.315E-01  1.936E+00  3.848E-09  6.482E-02  1.276E+00  4.360E+00
  1.200E-02  2.399E-01  1.877E+00  1.314E-09  6.482E-02  1.217E+00  4.322E+00
  1.200E-02  2.483E-01  1.817E+00  3.756E-09  6.482E-02  1.165E+00  4.284E+00
  1.200E-02  2.567E-01  1.758E+00  1.241E-08  6.482E-02  1.121E+00  4.246E+00
  1.200E-02  2.651E-01  1.698E+00  5.043E-09  6.482E-02  1.083E+00  4.208E+00
  1.200E-02  2.735E-01  1.639E+00 -5.019E-10  6.482E-02  1.051E+00  4.170E+00
  1.200E-02  2.820E-01  1.579E+00 -4.801E-10  6.482E-02  1.023E+00  4.132E+00
  1.200E-02  2.904E-01  1.519E+00 -2.425E-10  6.482E-02  9.985E-01  4.094E+00
  1.200E-02  2.988E-01  1.460E+00 -9.394E-11  6.482E-02  9.776E-01  4.056E+00
  1.200E-02  3.072E-01  1.400E+00 -2.119E-11  6.482E-02  9.595E-01  4.019E+00
  1.200E-02  3.156E-01  1.341E+00  5.349E-12  6.482E-02  9.436E-01  3.982E+00
  1.200E-02  3.240E-01  1.281E+00  1.274E-11  6.482E-02  9.295E-01  3.945E+00
  1.200E-02  3.325E-01  1.222E+00  2.415E-11  6.482E-02  9.170E-01  3.908E+00
  1.200E-02  3.409E-01  1.162E+00  4.365E-11  6.482E-02  9.058E-01  3.872E+00
  1.200E-02  3.493E-01  1.102E+00  6.179E-11  6.482E-02  8.955E-01  3.836E+00
  1.200E-02  3.577E-01  1.043E+00  7.726E-11  6.482E-02  8.861E-01  3.801E+00
  1.200E-02  3.661E-01  9.834E-01  1.098E-10  6.482E-02  8.774E-01  3.765E+00
  1.200E-02  3.745E-01  9.238E-01  1.340E-10  6.482E-02  8.692E-01  3.730E+00
  1.200E-02  3.830E-01  8.643E-01 -2.599E-10  6.482E-02  8.615E-01  3.696E+00
  1.200E-02  3.914E-01  8.047E-01  1.564E-09  6.482E-02  8.542E-01  3.661E+00
  1.200E-02  3.998E-01  7.451E-01  7.072E-09  6.482E-02  8.473E-01  3.628E+00
  1.200E-02  4.082E-01  6.856E-01  5.005E-09  6.482E-02  8.408E-01  3.594E+00
  1.200E-02  4.166E-01  6.260E-01  7.559E-09  6.482E-02  8.348E-01  3.561E+00
  1.200E-02  4.250E-01  5.665E-01  5.928E-09  6.482E-02  8.293E-01  3.528E+00
  1.200E-02  4.335E-01  5.069E-01  9.631E-09  6.482E-02  8.246E-01  3.495E+00
  1.200E-02  4.419E-01  4.474E-01  1.257E-08  6.482E-02  8.209E-01  3.463E+00
  1.200E-02  4.503E-01  3.878E-01  2.206E-08  6.482E-02  8.184E-01  3.431E+00
  1.200E-02  4.587E-01  3.282E-01  3.722E-08  6.482E-02  8.174E-01  3.399E+00
  1.200E-02  4.671E-01  2.687E-01  7.382E-08  6.482E-02  8.181E-01  3.368E+00
  1.200E-02  4.755E-01  2.091E-01  1.783E-07  6.482E-02  8.202E-01  3.337E+00
  1.200E-02  4.840E-01  1.496E-01  3.826E-07  6.487E-02  8.234E-01  3.307E+00
  1.200E-02  4.924E-01  8.987E-02  5.029E-07  6.498E-02  8.266E-01  3.277E+00
  1.200E-02  5.008E-01  2.996E-02  2.539E-07  6.508E-02  8.286E-01  3.249E+00
  1.200E-02  5.050E-01  0.000E+00  2.539E-07  6.508E-02  8.286E-01  3.249E+00
  2.000E-02  0.000E+00  3.574E+00  1.708E-04  6.500E-02  1.918E+00  1.917E+00
  2.000E-02  4.208E-03  3.544E+00  1.708E-04  6.446E-02  1.918E+00  1.917E+00
  2.000E-02  1.262E-02  3.485E+00  1.316E-04  6.464E-02  1.945E+00  1.918E+00
  2.000E-02  2.104E-02  3.425E+00  8.957E-05  6.485E-02  1.999E+00  1.919E+00
  2.000E-02  2.946E-02  3.366E+00  5.878E-05  6.488E-02  2.078E+00  1.920E+00
  2.000E-02  3.787E-02  3.306E+00  3.837E-05  6.486E-02  2.182E+00  1.924E+00
  2.000E-02  4.629E-02  3.247E+00  2.513E-05  6.484E-02  2.311E+00  1.928E+00
  2.000E-02  5.471E-02  3.187E+00  1.658E-05  6.484E-02  2.466E+00  1.935E+00
  2.000E-02  6.313E-02  3.127E+00  1.104E-05  6.484E-02  2.646E+00  1.944E+00
  2.000E-02  7.154E-02  3.068E+00  7.430E-06  6.483E-02  2.854E+00  1.955E+00
  2.000E-02  7.996E-02  3.008E+00  5.063E-06  6.483E-02  3.089E+00  1.968E+00
  2.000E-02  8.838E-02  2.949E+00  3.467E-06  6.483E-02  3.353E+00  1.989E+00
  2.000E-02  9.679E-02  2.889E+00  2.401E-06  6.483E-02  3.647E+00  2.111E+00
  2.000E-02  1.052E-01  2.830E+00  1.662E-06  6.483E-02  3.973E+00  4.791E+00
  2.000E-02  1.136E-01  2.770E+00  1.154E-06  6.483E-02  3.649E+00  4.777E+00
  2.000E-02  1.220E-01  2.711E+00  8.230E-07  6.483E-02  3.350E+00  4.760E+00
  2.000E-02  1.305E-01  2.651E+00  5.935E-07  6.483E-02  3.074E+00  4.740E+00
  2.000E-02  1.389E-01  2.591E+00  4.078E-07  6.483E-02  2.821E+00  4.717E+00
  2.000E-02  1.473E-01  2.532E+00  2.726E-07  6.483E-02  2.590E+00  4.691E+00
  2.000E-02  1.557E-01  2.472E+00  1.911E-07  6.483E-02  2.381E+00  4.663E+00
  2.000E-02  1.641E-01  2.413E+00  1.428E-07  6.483E-02  2.192E+00  4.634E+00
  2.000E-02  1.725E-01  2.353E+00  1.018E-07  6.483E-02  2.023E+00  4.603E+00
  2.000E-02  1.810E-01  2.294E+00  5.809E-08  6.483E-02  1.872E+00  4.570E+00
  2.000E-02  1.894E-01  2.234E+00  5.478E-08  6.483E-02  1.738E+00  4.536E+00
  2.000E-02  1.978E-01  2.175E+00  3.402E-08  6.483E-02  1.620E+00  4.501E+00
  2.000E-02  2.062E-01  2.115E+00  1.829E-08  6.483E-02  1.516E+00  4.465E+00
  2.000E-02  2.146E-01  2.055E+00  1.089E-08  6.483E-02  1.425E+00  4.429E+00
  2.000E-02  2.230E-01  1.996E+00  8.097E-09  6.483E-02  1.345E+00  4.392E+00
  2.000E-02  2.315E-01  1.936E+00  5.794E-09  6.483E-02  1.276E+00  4.354E+00
  2.000E-02  2.399E-01  1.877E+00  3.973E-09  6.483E-02  1.217E+00  4.317E+00
  2.000E-02  2.483E-01  1.817E+00  3.993E-09  6.483E-02  1.166E+00  4.279E+00
  2.000E-02  2.567E-01  1.758E+00  5.344E-09  6.483E-02  1.121E+00  4.241E+00
  2.000E-02  2.651E-01  1.698E+00  4.219E-09  6.483E-02  1.083E+00  4.203E+00
  2.000E-02  2.735E-01  1.639E+00  1.960E-09  6.483E-02  1.051E+00  4.165E+00
  2.000E-02  2.820E-01  1.579E+00  9.105E-10  6.483E-02  1.023E+00  4.127E+00
  2.000E-02  2.904E-01  1.519E+00  4.210E-10  6.483E-02  9.986E-01  4.090E+00
  2.000E-02  2.988E-01  1.460E+00  2.255E-10  6.483E-02  9.777E-01  4.052E+00
  2.000E-02  3.072E-01  1.400E+00  1.420E-10  6.483E-02  9.596E-01  4.015E+00
  2.000E-02  3.156E-01  1.341E+00  9.988E-11  6.483E-02  9.437E-01  3.978E+00
  2.000E-02  3.240E-01  1.281E+00  7.650E-11  6.483E-02  9.296E-01  3.942E+00
  2.000E-02  3.325E-01  1.222E+00  6.667E-11  6.483E-02  9.171E-01  3.905E+00
  2.000E-02  3.409E-01  1.162E+00  6.691E-11  6.483E-02  9.059E-01  3.869E+00
  2.000E-02  3.493E-01  1.102E+00  7.296E-11  6.483E-02  8.957E-01  3.834E+00
  2.000E-02  3.577E-01  1.043E+00  8.432E-11  6.483E-02  8.863E-01  3.798E+00
  2.000E-02  3.661E-01  9.834E-01  1.011E-10  6.483E-02  8.775E-01  3.763E+00
  2.000E-02  3.745E-01  9.238E-01  1.547E-10  6.483E-02  8.694E-01  3.728E+00
  2.000E-02  3.830E-01  8.643E-01 -2.228E-10  6.483E-02  8.616E-01  3.694E+00
  2.000E-02  3.914E-01  8.047E-01  1.418E-09  6.483E-02  8.543E-01  3.659E+00
  2.000E-02  3.998E-01  7.451E-01  5.614E-09  6.483E-02  8.474E-01  3.626E+00
  2.000E-02  4.082E-01  6.856E-01  4.479E-09  6.483E-02  8.409E-01  3.592E+00
  2.000E-02  4.166E-01  6.260E-01  8.081E-09  6.483E-02  8.349E-01  3.559E+00
  2.000E-02  4.250E-01  5.665E-01  5.505E-09  6.483E-02  8.294E-01  3.526E+00
  2.000E-02  4.335E-01  5.069E-01  6.755E-09  6.483E-02  8.247E-01  3.493E+00
  2.000E-02  4.419E-01  4.474E-01  1.753E-08  6.483E-02  8.210E-01  3.461E+00
  2.000E-02  4.503E-01  3.878E-01  2.664E-08  6.483E-02  8.185E-01  3.429E+00
  2.000E-02  4.587E-01  3.282E-01  4.526E-08  6.483E-02  8.176E-01  3.398E+00
  2.000E-02  4.671E-01  2.687E-01  8.282E-08  6.482E-02  8.182E-01  3.367E+00
  2.000E-02  4.755E-01  2.091E-01  1.545E-07  6.483E-02  8.204E-01  3.336E+00
  2.000E-02  4.840E-01  1.496E-01  2.407E-07  6.487E-02  8.235E-01  3.306E+00
  2.000E-02  4.924E-01  8.987E-02  2.382E-07  6.499E-02  8.267E-01  3.276E+00
  2.000E-02  5.008E-01  2.996E-02  9.242E-08  6.508E-02  8.287E-01  3.248E+00
  2.000E-02  5.050E-01  0.000E+00  9.242E-08  6.508E-02  8.287E-01  3.248E+00
  2.800E-02  0.000E+00  3.573E+00  1.237E-04  6.500E-02  1.918E+00  1.917E+00
  2.800E-02  4.208E-03  3.544E+00  1.237E-04  6.443E-02  1.918E+00  1.917E+00
  2.800E-02  1.262E-02  3.485E+00  1.058E-04  6.461E-02  1.945E+00  1.918E+00
  2.800E-02  2.104E-02  3.425E+00  8.019E-05  6.482E-02  1.999E+00  1.919E+00
  2.800E-02  2.946E-02  3.366E+00  5.706E-05  6.486E-02  2.078E+00  1.921E+00
  2.800E-02  3.787E-02  3.306E+00  3.963E-05  6.484E-02  2.182E+00  1.924E+00
  2.800E-02  4.629E-02  3.247E+00  2.728E-05  6.483E-02  2.311E+00  1.928E+00
  2.800E-02  5.471E-02  3.187E+00  1.873E-05  6.483E-02  2.466E+00  1.935E+00
  2.800E-02  6.313E-02  3.127E+00  1.289E-05  6.483E-02  2.647E+00  1.944E+00
  2.800E-02  7.154E-02  3.068E+00  8.900E-06  6.483E-02  2.854E+00  1.955E+00
  2.800E-02  7.996E-02  3.008E+00  6.149E-06  6.483E-02  3.089E+00  1.969E+00
  2.800E-02  8.838E-02  2.949E+00  4.245E-06  6.483E-02  3.353E+00  1.989E+00
  2.800E-02  9.679E-02  2.889E+00  2.963E-06  6.483E-02  3.648E+00  2.111E+00
  2.800E-02  1.052E-01  2.830E+00  2.070E-06  6.483E-02  3.973E+00  4.791E+00
  2.800E-02  1.136E-01  2.770E+00  1.455E-06  6.483E-02  3.649E+00  4.777E+00
  2.800E-02  1.220E-01  2.711E+00  1.031E-06  6.483E-02  3.350E+00  4.760E+00
  2.800E-02  1.305E-01  2.651E+00  7.241E-07  6.483E-02  3.074E+00  4.739E+00
  2.800E-02  1.389E-01  2.591E+00  5.061E-07  6.483E-02  2.821E+00  4.716E+00
  2.800E-02  1.473E-01  2.532E+00  3.520E-07  6.483E-02  2.590E+00  4.690E+00
  2.800E-02  1.557E-01  2.472E+00  2.407E-07  6.483E-02  2.381E+00  4.662E+00
  2.800E-02  1.641E-01  2.413E+00  1.754E-07  6.483E-02  2.193E+00  4.633E+00
  2.800E-02  1.725E-01  2.353E+00  1.267E-07  6.483E-02  2.023E+00  4.601E+00
  2.800E-02  1.810E-01  2.294E+00  7.566E-08  6.483E-02  1.872E+00  4.568E+00
  2.800E-02  1.894E-01  2.234E+00  5.609E-08  6.483E-02  1.738E+00  4.534E+00
  2.800E-02  1.978E-01  2.175E+00  5.843E-08  6.483E-02  1.620E+00  4.499E+00
  2.800E-02  2.062E-01  2.115E+00  3.431E-08  6.483E-02  1.516E+00  4.463E+00
  2.800E-02  2.146E-01  2.055E+00  1.283E-08  6.483E-02  1.425E+00  4.427E+00
  2.800E-02  2.230E-01  1.996E+00  1.028E-08  6.483E-02  1.345E+00  4.390E+00
  2.800E-02  2.315E-01  1.936E+00  7.276E-09  6.483E-02  1.276E+00  4.352E+00
  2.800E-02  2.399E-01  1.877E+00  4.950E-09  6.483E-02  1.217E+00  4.315E+00
  2.800E-02  2.483E-01  1.817E+00  3.650E-09  6.483E-02  1.166E+00  4.277E+00
  2.800E-02  2.567E-01  1.758E+00  1.673E-09  6.483E-02  1.121E+00  4.239E+00
  2.800E-02  2.651E-01  1.698E+00  2.098E-09  6.483E-02  1.084E+00  4.201E+00
  2.800E-02  2.735E-01  1.639E+00  1.424E-09  6.483E-02  1.051E+00  4.163E+00
  2.800E-02  2.820E-01  1.579E+00  8.120E-10  6.483E-02  1.023E+00  4.125E+00
  2.800E-02  2.904E-01  1.519E+00  4.489E-10  6.483E-02  9.988E-01  4.088E+00
  2.800E-02  2.988E-01  1.460E+00  2.823E-10  6.483E-02  9.779E-01  4.050E+00
  2.800E-02  3.072E-01  1.400E+00  1.967E-10  6.483E-02  9.597E-01  4.013E+00
  2.800E-02  3.156E-01  1.341E+00  1.453E-10  6.483E-02  9.438E-01  3.976E+00
  2.800E-02  3.240E-01  1.281E+00  1.122E-10  6.483E-02  9.298E-01  3.940E+00
  2.800E-02  3.325E-01  1.222E+00  9.278E-11  6.483E-02  9.173E-01  3.903E+00
  2.800E-02  3.409E-01  1.162E+00  8.428E-11  6.483E-02  9.060E-01  3.867E+00
  2.800E-02  3.493E-01  1.102E+00  8.508E-11  6.483E-02  8.958E-01  3.832E+00
  2.800E-02  3.577E-01  1.043E+00  9.689E-11  6.483E-02  8.864E-01  3.796E+00
  2.800E-02  3.661E-01  9.834E-01  1.335E-10  6.483E-02  8.777E-01  3.761E+00
  2.800E-02  3.745E-01  9.238E-01  2.429E-10  6.483E-02  8.695E-01  3.726E+00
  2.800E-02  3.830E-01  8.643E-01  3.384E-10  6.483E-02  8.618E-01  3.692E+00
  2.800E-02  3.914E-01  8.047E-01  7.934E-10  6.483E-02  8.545E-01  3.658E+00
  2.800E-02  3.998E-01  7.451E-01  1.167E-09  6.483E-02  8.476E-01  3.624E+00
  2.800E-02  4.082E-01  6.856E-01  8.494E-10  6.483E-02  8.411E-01  3.590E+00
  2.800E-02  4.166E-01  6.260E-01  3.187E-09  6.483E-02  8.350E-01  3.557E+00
  2.800E-02  4.250E-01  5.665E-01  1.066E-08  6.483E-02  8.296E-01  3.524E+00
  2.800E-02  4.335E-01  5.069E-01  1.510E-08  6.483E-02  8.249E-01  3.492E+00
  2.800E-02  4.419E-01  4.474E-01  2.173E-08  6.483E-02  8.211E-01  3.460E+00
  2.800E-02  4.503E-01  3.878E-01  2.969E-08  6.483E-02  8.187E-01  3.428E+00
  2.800E-02  4.587E-01  3.282E-01  4.817E-08  6.483E-02  8.177E-01  3.397E+00
  2.800E-02  4.671E-01  2.687E-01  7.788E-08  6.482E-02  8.184E-01  3.366E+00
  2.800E-02  4.755E-01  2.091E-01  1.207E-07  6.483E-02  8.205E-01  3.335E+00
  2.800E-02  4.840E-01  1.496E-01  1.481E-07  6.487E-02  8.236E-01  3.305E+00
  2.800E-02  4.924E-01  8.987E-02  1.179E-07  6.499E-02  8.268E-01  3.275E+00
  2.800E-02  5.008E-01  2.996E-02  4.185E-08  6.508E-02  8.289E-01  3.247E+00
  2.800E-02  5.050E-01  0.000E+00  4.185E-08  6.508E-02  8.289E-01  3.247E+00
  3.600E-02  0.000E+00  3.573E+00  9.137E-05  6.500E-02  1.919E+00  1.917E+00
  3.600E-02  4.208E-03  3.544E+00  9.137E-05  6.442E-02  1.919E+00  1.917E+00
  3.600E-02  1.262E-02  3.485E+00  8.210E-05  6.460E-02  1.946E+00  1.918E+00
  3.600E-02  2.104E-02  3.425E+00  6.669E-05  6.480E-02  1.999E+00  1.919E+00
  3.600E-02  2.946E-02  3.366E+00  5.058E-05  6.485E-02  2.078E+00  1.921E+00
  3.600E-02  3.787E-02  3.306E+00  3.703E-05  6.483E-02  2.182E+00  1.924E+00
  3.600E-02  4.629E-02  3.247E+00  2.661E-05  6.482E-02  2.312E+00  1.928E+00
  3.600E-02  5.471E-02  3.187E+00  1.889E-05  6.483E-02  2.466E+00  1.935E+00
  3.600E-02  6.313E-02  3.127E+00  1.333E-05  6.483E-02  2.647E+00  1.944E+00
  3.600E-02  7.154E-02  3.068E+00  9.395E-06  6.483E-02  2.854E+00  1.955E+00
  3.600E-02  7.996E-02  3.008E+00  6.588E-06  6.483E-02  3.089E+00  1.969E+00
  3.600E-02  8.838E-02  2.949E+00  4.613E-06  6.483E-02  3.353E+00  1.989E+00
  3.600E-02  9.679E-02  2.889E+00  3.245E-06  6.483E-02  3.648E+00  2.111E+00
  3.600E-02  1.052E-01  2.830E+00  2.290E-06  6.483E-02  3.973E+00  4.791E+00
  3.600E-02  1.136E-01  2.770E+00  1.606E-06  6.483E-02  3.649E+00  4.777E+00
  3.600E-02  1.220E-01  2.711E+00  1.120E-06  6.483E-02  3.350E+00  4.760E+00
  3.600E-02  1.305E-01  2.651E+00  7.777E-07  6.483E-02  3.074E+00  4.739E+00
  3.600E-02  1.389E-01  2.591E+00  5.486E-07  6.483E-02  2.821E+00  4.716E+00
  3.600E-02  1.473E-01  2.532E+00  3.875E-07  6.483E-02  2.591E+00  4.690E+00
  3.600E-02  1.557E-01  2.472E+00  2.802E-07  6.483E-02  2.381E+00  4.662E+00
  3.600E-02  1.641E-01  2.413E+00  1.899E-07  6.483E-02  2.193E+00  4.633E+00
  3.600E-02  1.725E-01  2.353E+00  1.220E-07  6.483E-02  2.023E+00  4.601E+00
  3.600E-02  1.810E-01  2.294E+00  9.598E-08  6.483E-02  1.872E+00  4.568E+00
  3.600E-02  1.894E-01  2.234E+00  6.312E-08  6.483E-02  1.738E+00  4.534E+00
  3.600E-02  1.978E-01  2.175E+00  5.872E-08  6.483E-02  1.620E+00  4.499E+00
  3.600E-02  2.062E-01  2.115E+00  3.771E-08  6.483E-02  1.516E+00  4.463E+00
  3.600E-02  2.146E-01  2.055E+00  1.940E-08  6.483E-02  1.425E+00  4.426E+00
  3.600E-02  2.230E-01  1.996E+00  1.410E-08  6.483E-02  1.345E+00  4.389E+00
  3.600E-02  2.315E-01  1.936E+00  8.472E-09  6.483E-02  1.277E+00  4.352E+00
  3.600E-02  2.399E-01  1.877E+00  5.673E-09  6.483E-02  1.217E+00  4.314E+00
  3.600E-02  2.483E-01  1.817E+00  4.047E-09  6.483E-02  1.166E+00  4.276E+00
  3.600E-02  2.567E-01  1.758E+00  2.889E-09  6.483E-02  1.122E+00  4.238E+00
  3.600E-02  2.651E-01  1.698E+00  2.354E-09  6.483E-02  1.084E+00  4.200E+00
  3.600E-02  2.735E-01  1.639E+00  1.659E-09  6.483E-02  1.051E+00  4.162E+00
  3.600E-02  2.820E-01  1.579E+00  1.086E-09  6.483E-02  1.023E+00  4.125E+00
  3.600E-02  2.904E-01  1.519E+00  6.950E-10  6.483E-02  9.989E-01  4.087E+00
  3.600E-02  2.988E-01  1.460E+00  4.540E-10  6.483E-02  9.780E-01  4.050E+00
  3.600E-02  3.072E-01  1.400E+00  3.055E-10  6.483E-02  9.598E-01  4.012E+00
  3.600E-02  3.156E-01  1.341E+00  2.124E-10  6.483E-02  9.439E-01  3.975E+00
  3.600E-02  3.240E-01  1.281E+00  1.536E-10  6.483E-02  9.299E-01  3.939E+00
  3.600E-02  3.325E-01  1.222E+00  1.175E-10  6.483E-02  9.174E-01  3.903E+00
  3.600E-02  3.409E-01  1.162E+00  9.705E-11  6.483E-02  9.062E-01  3.866E+00
  3.600E-02  3.493E-01  1.102E+00  8.855E-11  6.483E-02  8.959E-01  3.831E+00
  3.600E-02  3.577E-01  1.043E+00  8.997E-11  6.483E-02  8.865E-01  3.795E+00
  3.600E-02  3.661E-01  9.834E-01  1.149E-10  6.483E-02  8.778E-01  3.760E+00
  3.600E-02  3.745E-01  9.238E-01  2.644E-10  6.483E-02  8.696E-01  3.725E+00
  3.600E-02  3.830E-01  8.643E-01  4.095E-10  6.483E-02  8.619E-01  3.691E+00
  3.600E-02  3.914E-01  8.047E-01  5.166E-10  6.483E-02  8.546E-01  3.657E+00
  3.600E-02  3.998E-01  7.451E-01  6.093E-10  6.483E-02  8.477E-01  3.623E+00
  3.600E-02  4.082E-01  6.856E-01  9.525E-10  6.483E-02  8.412E-01  3.590E+00
  3.600E-02  4.166E-01  6.260E-01  2.573E-09  6.483E-02  8.351E-01  3.556E+00
  3.600E-02  4.250E-01  5.665E-01  1.006E-08  6.483E-02  8.297E-01  3.524E+00
  3.600E-02  4.335E-01  5.069E-01  1.464E-08  6.483E-02  8.250E-01  3.491E+00
  3.600E-02  4.419E-01  4.474E-01  1.941E-08  6.483E-02  8.213E-01  3.459E+00
  3.600E-02  4.503E-01  3.878E-01  3.017E-08  6.483E-02  8.188E-01  3.427E+00
  3.600E-02  4.587E-01  3.282E-01  4.340E-08  6.483E-02  8.178E-01  3.396E+00
  3.600E-02  4.671E-01  2.687E-01  6.428E-08  6.482E-02  8.185E-01  3.365E+00
  3.600E-02  4.755E-01  2.091E-01  8.530E-08  6.483E-02  8.206E-01  3.334E+00
  3.600E-02  4.840E-01  1.496E-01  8.884E-08  6.487E-02  8.238E-01  3.304E+00
  3.600E-02  4.924E-01  8.987E-02  6.215E-08  6.499E-02  8.270E-01  3.274E+00
  3.600E-02  5.008E-01  2.996E-02  1.906E-08  6.508E-02  8.290E-01  3.246E+00
  3.600E-02  5.050E-01  0.000E+00  1.906E-08  6.508E-02  8.290E-01  3.246E+00
  4.400E-02  0.000E+00  3.573E+00  6.786E-05  6.500E-02  1.919E+00  1.917E+00
  4.400E-02  4.208E-03  3.544E+00  6.786E-05  6.442E-02  1.919E+00  1.917E+00
  4.400E-02  1.262E-02  3.485E+00  6.261E-05  6.459E-02  1.946E+00  1.918E+00
  4.400E-02  2.104E-02  3.425E+00  5.312E-05  6.479E-02  1.999E+00  1.919E+00
  4.400E-02  2.946E-02  3.366E+00  4.218E-05  6.484E-02  2.078E+00  1.921E+00
  4.400E-02  3.787E-02  3.306E+00  3.212E-05  6.482E-02  2.182E+00  1.924E+00
  4.400E-02  4.629E-02  3.247E+00  2.384E-05  6.482E-02  2.312E+00  1.929E+00
  4.400E-02  5.471E-02  3.187E+00  1.739E-05  6.482E-02  2.466E+00  1.935E+00
  4.400E-02  6.313E-02  3.127E+00  1.252E-05  6.482E-02  2.647E+00  1.944E+00
  4.400E-02  7.154E-02  3.068E+00  8.930E-06  6.482E-02  2.854E+00  1.955E+00
  4.400E-02  7.996E-02  3.008E+00  6.352E-06  6.483E-02  3.089E+00  1.969E+00