VARIABLES="XP","YP","P","U","V","TS","TF"
ZONE T="Zone 001"I=    82 J=    12 F=POINT
  0.000E+00  0.000E+00  1.013E+05  0.000E+00  0.000E+00  3.000E+02  2.930E+02
  0.000E+00  3.156E-03  1.013E+05  0.000E+00  0.000E+00  3.000E+02  2.930E+02
  0.000E+00  9.469E-03  1.013E+05  0.000E+00  0.000E+00  3.000E+02  2.930E+02
  0.000E+00  1.578E-02  1.013E+05  0.000E+00  0.000E+00  3.000E+02  2.930E+02
  0.000E+00  2.209E-02  1.013E+05  0.000E+00  0.000E+00  3.000E+02  2.930E+02
  0.000E+00  2.841E-02  1.013E+05  0.000E+00  0.000E+00  3.000E+02  2.930E+02
  0.000E+00  3.472E-02  1.013E+05  0.000E+00  0.000E+00  3.000E+02  2.930E+02
  0.000E+00  4.103E-02  1.013E+05  0.000E+00  0.000E+00  3.000E+02  2.930E+02
  0.000E+00  4.734E-02  1.013E+05  0.000E+00  0.000E+00  3.000E+02  2.930E+02
  0.000E+00  5.366E-02  1.013E+05  0.000E+00  0.000E+00  3.000E+02  2.930E+02
  0.000E+00  5.997E-02  1.013E+05  0.000E+00  0.000E+00  3.000E+02  2.930E+02
  0.000E+00  6.628E-02  1.013E+05  0.000E+00  0.000E+00  3.000E+02  2.930E+02
  0.000E+00  7.259E-02  1.013E+05  0.000E+00  0.000E+00  3.000E+02  2.930E+02
  0.000E+00  7.891E-02  1.013E+05  0.000E+00  0.000E+00  3.000E+02  2.930E+02
  0.000E+00  8.522E-02  1.013E+05  0.000E+00  0.000E+00  3.000E+02  2.930E+02
  0.000E+00  9.153E-02  1.013E+05  0.000E+00  0.000E+00  3.000E+02  2.930E+02
  0.000E+00  9.784E-02  1.013E+05  0.000E+00  0.000E+00  3.000E+02  2.930E+02
  0.000E+00  1.042E-01  1.013E+05  0.000E+00  0.000E+00  3.000E+02  2.930E+02
  0.000E+00  1.105E-01  1.013E+05  0.000E+00  0.000E+00  3.000E+02  2.930E+02
  0.000E+00  1.168E-01  1.013E+05  0.000E+00  0.000E+00  3.000E+02  2.930E+02
  0.000E+00  1.231E-01  1.013E+05  0.000E+00  0.000E+00  3.000E+02  2.930E+02
  0.000E+00  1.294E-01  1.013E+05  0.000E+00  0.000E+00  3.000E+02  2.930E+02
  0.000E+00  1.357E-01  1.013E+05  0.000E+00  0.000E+00  3.000E+02  2.930E+02
  0.000E+00  1.420E-01  1.013E+05  0.000E+00  0.000E+00  3.000E+02  2.930E+02
  0.000E+00  1.483E-01  1.013E+05  0.000E+00  0.000E+00  3.000E+02  2.930E+02
  0.000E+00  1.547E-01  1.013E+05  0.000E+00  0.000E+00  3.000E+02  2.930E+02
  0.000E+00  1.610E-01  1.013E+05  0.000E+00  0.000E+00  3.000E+02  2.930E+02
  0.000E+00  1.673E-01  1.013E+05  0.000E+00  0.000E+00  3.000E+02  2.930E+02
  0.000E+00  1.736E-01  1.013E+05  0.000E+00  0.000E+00  3.000E+02  2.930E+02
  0.000E+00  1.799E-01  1.013E+05  0.000E+00  0.000E+00  3.000E+02  2.930E+02
  0.000E+00  1.862E-01  1.013E+05  0.000E+00  0.000E+00  3.000E+02  2.930E+02
  0.000E+00  1.925E-01  1.013E+05  0.000E+00  0.000E+00  3.000E+02  2.930E+02
  0.000E+00  1.988E-01  1.013E+05  0.000E+00  0.000E+00  3.000E+02  2.930E+02
  0.000E+00  2.052E-01  1.013E+05  0.000E+00  0.000E+00  3.000E+02  2.930E+02
  0.000E+00  2.115E-01  1.013E+05  0.000E+00  0.000E+00  3.000E+02  2.930E+02
  0.000E+00  2.178E-01  1.013E+05  0.000E+00  0.000E+00  3.000E+02  2.930E+02
  0.000E+00  2.241E-01  1.013E+05  0.000E+00  0.000E+00  3.000E+02  2.930E+02
  0.000E+00  2.304E-01  1.013E+05  0.000E+00  0.000E+00  3.000E+02  2.930E+02
  0.000E+00  2.367E-01  1.013E+05  0.000E+00  0.000E+00  3.000E+02  2.930E+02
  0.000E+00  2.430E-01  1.013E+05  0.000E+00  0.000E+00  3.000E+02  2.930E+02
  0.000E+00  2.493E-01  1.013E+05  0.000E+00  0.000E+00  3.000E+02  2.930E+02
  0.000E+00  2.557E-01  1.013E+05  0.000E+00  0.000E+00  3.000E+02  2.930E+02
  0.000E+00  2.620E-01  1.013E+05  0.000E+00  0.000E+00  3.000E+02  2.930E+02
  0.000E+00  2.683E-01  1.013E+05  0.000E+00  0.000E+00  3.000E+02  2.930E+02
  0.000E+00  2.746E-01  1.013E+05  0.000E+00  0.000E+00  3.000E+02  2.930E+02
  0.000E+00  2.809E-01  1.013E+05  0.000E+00  0.000E+00  3.000E+02  2.930E+02
  0.000E+00  2.872E-01  1.013E+05  0.000E+00  0.000E+00  3.000E+02  2.930E+02
  0.000E+00  2.935E-01  1.013E+05  0.000E+00  0.000E+00  3.000E+02  2.930E+02
  0.000E+00  2.998E-01  1.013E+05  0.000E+00  0.000E+00  3.000E+02  2.930E+02
  0.000E+00  3.062E-01  1.013E+05  0.000E+00  0.000E+00  3.000E+02  2.930E+02
  0.000E+00  3.125E-01  1.013E+05  0.000E+00  0.000E+00  3.000E+02  2.930E+02
  0.000E+00  3.188E-01  1.013E+05  0.000E+00  0.000E+00  3.000E+02  2.930E+02
  0.000E+00  3.251E-01  1.013E+05  0.000E+00  0.000E+00  3.000E+02  2.930E+02
  0.000E+00  3.314E-01  1.013E+05  0.000E+00  0.000E+00  3.000E+02  2.930E+02
  0.000E+00  3.377E-01  1.013E+05  0.000E+00  0.000E+00  3.000E+02  2.930E+02
  0.000E+00  3.440E-01  1.013E+05  0.000E+00  0.000E+00  3.000E+02  2.930E+02
  0.000E+00  3.503E-01  1.013E+05  0.000E+00  0.000E+00  3.000E+02  2.930E+02
  0.000E+00  3.567E-01  1.013E+05  0.000E+00  0.000E+00  3.000E+02  2.930E+02
  0.000E+00  3.630E-01  1.013E+05  0.000E+00  0.000E+00  3.000E+02  2.930E+02
  0.000E+00  3.693E-01  1.013E+05  0.000E+00  0.000E+00  3.000E+02  2.930E+02
  0.000E+00  3.756E-01  1.013E+05  0.000E+00  0.000E+00  3.000E+02  2.930E+02
  0.000E+00  3.819E-01  1.013E+05  0.000E+00  0.000E+00  3.000E+02  2.930E+02
  0.000E+00  3.882E-01  1.013E+05  0.000E+00  0.000E+00  3.000E+02  2.930E+02
  0.000E+00  3.945E-01  1.013E+05  0.000E+00  0.000E+00  3.000E+02  2.930E+02
  0.000E+00  4.008E-01  1.013E+05  0.000E+00  0.000E+00  3.000E+02  2.930E+02
  0.000E+00  4.072E-01  1.013E+05  0.000E+00  0.000E+00  3.000E+02  2.930E+02
  0.000E+00  4.135E-01  1.013E+05  0.000E+00  0.000E+00  3.000E+02  2.930E+02
  0.000E+00  4.198E-01  1.013E+05  0.000E+00  0.000E+00  3.000E+02  2.930E+02
  0.000E+00  4.261E-01  1.013E+05  0.000E+00  0.000E+00  3.000E+02  2.930E+02
  0.000E+00  4.324E-01  1.013E+05  0.000E+00  0.000E+00  3.000E+02  2.930E+02
  0.000E+00  4.387E-01  1.013E+05  0.000E+00  0.000E+00  3.000E+02  2.930E+02
  0.000E+00  4.450E-01  1.013E+05  0.000E+00  0.000E+00  3.000E+02  2.930E+02
  0.000E+00  4.513E-01  1.013E+05  0.000E+00  0.000E+00  3.000E+02  2.930E+02
  0.000E+00  4.577E-01  1.013E+05  0.000E+00  0.000E+00  3.000E+02  2.930E+02
  0.000E+00  4.640E-01  1.013E+05  0.000E+00  0.000E+00  3.000E+02  2.930E+02
  0.000E+00  4.703E-01  1.013E+05  0.000E+00  0.000E+00  3.000E+02  2.930E+02
  0.000E+00  4.766E-01  1.013E+05  0.000E+00  0.000E+00  3.000E+02  2.930E+02
  0.000E+00  4.829E-01  1.013E+05  0.000E+00  0.000E+00  3.000E+02  2.930E+02
  0.000E+00  4.892E-01  1.013E+05  0.000E+00  0.000E+00  3.000E+02  2.930E+02
  0.000E+00  4.955E-01  1.013E+05  0.000E+00  0.000E+00  3.000E+02  2.930E+02
  0.000E+00  5.018E-01  1.013E+05  0.000E+00  0.000E+00  3.000E+02  2.930E+02
  0.000E+00  5.050E-01  1.013E+05  0.000E+00  0.000E+00  3.000E+02  2.930E+02
  1.417E-02  0.000E+00  1.013E+05 -5.741E-01  6.500E-02  3.000E+02  2.936E+02
  1.417E-02  3.156E-03  1.013E+05 -5.741E-01  4.325E-01  3.000E+02  2.936E+02
  1.417E-02  9.469E-03  1.013E+05 -3.458E-01  7.705E-01  3.000E+02  2.937E+02
  1.417E-02  1.578E-02  1.013E+05 -2.023E-01  1.165E+00  3.000E+02  2.937E+02
  1.417E-02  2.209E-02  1.013E+05 -1.107E-01  1.468E+00  3.000E+02  2.937E+02
  1.417E-02  2.841E-02  1.013E+05 -5.392E-02  1.661E+00  3.000E+02  2.937E+02
  1.417E-02  3.472E-02  1.013E+05 -2.033E-02  1.787E+00  3.000E+02  2.937E+02
  1.417E-02  4.103E-02  1.013E+05 -2.158E-03  1.877E+00  3.000E+02  2.937E+02
  1.417E-02  4.734E-02  1.013E+05  5.634E-03  1.946E+00  3.000E+02  2.937E+02
  1.417E-02  5.366E-02  1.013E+05  6.224E-03  2.002E+00  3.000E+02  2.938E+02
  1.417E-02  5.997E-02  1.013E+05  2.694E-03  2.046E+00  3.000E+02  2.938E+02
  1.417E-02  6.628E-02  1.013E+05 -3.216E-03  2.085E+00  3.000E+02  2.938E+02
  1.417E-02  7.259E-02  1.013E+05 -1.176E-02  2.119E+00  3.000E+02  2.938E+02
  1.417E-02  7.891E-02  1.013E+05 -2.211E-02  2.150E+00  3.000E+02  2.938E+02
  1.417E-02  8.522E-02  1.013E+05 -3.394E-02  2.177E+00  3.000E+02  2.938E+02
  1.417E-02  9.153E-02  1.013E+05 -4.689E-02  2.202E+00  3.000E+02  2.938E+02
  1.417E-02  9.784E-02  1.013E+05 -6.085E-02  2.224E+00  3.000E+02  2.938E+02
  1.417E-02  1.042E-01  1.013E+05 -7.543E-02  2.246E+00  3.000E+02  2.938E+02
  1.417E-02  1.105E-01  1.013E+05 -9.013E-02  2.268E+00  3.000E+02  2.938E+02
  1.417E-02  1.168E-01  1.013E+05 -1.045E-01  2.289E+00  3.000E+02  2.938E+02
  1.417E-02  1.231E-01  1.013E+05 -1.188E-01  2.311E+00  3.000E+02  2.938E+02
  1.417E-02  1.294E-01  1.013E+05 -1.322E-01  2.332E+00  3.000E+02  2.938E+02
  1.417E-02  1.357E-01  1.013E+05 -1.442E-01  2.354E+00  3.000E+02  2.938E+02
  1.417E-02  1.420E-01  1.013E+05 -1.550E-01  2.376E+00  3.000E+02  2.938E+02
  1.417E-02  1.483E-01  1.013E+05 -1.647E-01  2.399E+00  3.000E+02  2.938E+02
  1.417E-02  1.547E-01  1.013E+05 -1.730E-01  2.423E+00  3.000E+02  2.938E+02
  1.417E-02  1.610E-01  1.013E+05 -1.799E-01  2.447E+00  3.000E+02  2.938E+02
  1.417E-02  1.673E-01  1.013E+05 -1.853E-01  2.471E+00  3.000E+02  2.938E+02
  1.417E-02  1.736E-01  1.013E+05 -1.889E-01  2.496E+00  3.000E+02  2.938E+02
  1.417E-02  1.799E-01  1.013E+05 -1.908E-01  2.521E+00  3.000E+02  2.938E+02
  1.417E-02  1.862E-01  1.013E+05 -1.915E-01  2.547E+00  3.000E+02  2.938E+02
  1.417E-02  1.925E-01  1.013E+05 -1.909E-01  2.573E+00  3.000E+02  2.938E+02
  1.417E-02  1.988E-01  1.013E+05 -1.896E-01  2.598E+00  3.000E+02  2.938E+02
  1.417E-02  2.052E-01  1.013E+05 -1.870E-01  2.622E+00  3.000E+02  2.938E+02
  1.417E-02  2.115E-01  1.013E+05 -1.839E-01  2.645E+00  3.000E+02  2.938E+02
  1.417E-02  2.178E-01  1.013E+05 -1.799E-01  2.668E+00  3.000E+02  2.938E+02
  1.417E-02  2.241E-01  1.013E+05 -1.754E-01  2.690E+00  3.000E+02  2.938E+02
  1.417E-02  2.304E-01  1.013E+05 -1.704E-01  2.711E+00  3.000E+02  2.938E+02
  1.417E-02  2.367E-01  1.013E+05 -1.653E-01  2.731E+00  3.000E+02  2.938E+02
  1.417E-02  2.430E-01  1.013E+05 -1.600E-01  2.749E+00  3.000E+02  2.938E+02
  1.417E-02  2.493E-01  1.013E+05 -1.545E-01  2.766E+00  3.000E+02  2.938E+02
  1.417E-02  2.557E-01  1.013E+05 -1.489E-01  2.782E+00  3.000E+02  2.938E+02
  1.417E-02  2.620E-01  1.013E+05 -1.434E-01  2.797E+00  3.000E+02  2.938E+02
  1.417E-02  2.683E-01  1.013E+05 -1.376E-01  2.810E+00  3.000E+02  2.938E+02
  1.417E-02  2.746E-01  1.013E+05 -1.320E-01  2.822E+00  3.000E+02  2.938E+02
  1.417E-02  2.809E-01  1.013E+05 -1.265E-01  2.833E+00  3.000E+02  2.938E+02
  1.417E-02  2.872E-01  1.013E+05 -1.212E-01  2.844E+00  3.000E+02  2.938E+02
  1.417E-02  2.935E-01  1.013E+05 -1.164E-01  2.853E+00  3.000E+02  2.938E+02
  1.417E-02  2.998E-01  1.013E+05 -1.116E-01  2.861E+00  3.000E+02  2.938E+02
  1.417E-02  3.062E-01  1.013E+05 -1.070E-01  2.868E+00  3.000E+02  2.938E+02
  1.417E-02  3.125E-01  1.013E+05 -1.028E-01  2.873E+00  3.000E+02  2.938E+02
  1.417E-02  3.188E-01  1.013E+05 -9.862E-02  2.878E+00  3.000E+02  2.938E+02
  1.417E-02  3.251E-01  1.013E+05 -9.415E-02  2.882E+00  3.000E+02  2.938E+02
  1.417E-02  3.314E-01  1.013E+05 -9.018E-02  2.885E+00  3.000E+02  2.938E+02
  1.417E-02  3.377E-01  1.013E+05 -8.670E-02  2.889E+00  3.000E+02  2.938E+02
  1.417E-02  3.440E-01  1.013E+05 -8.332E-02  2.891E+00  3.000E+02  2.938E+02
  1.417E-02  3.503E-01  1.013E+05 -8.038E-02  2.892E+00  3.000E+02  2.938E+02
  1.417E-02  3.567E-01  1.013E+05 -7.747E-02  2.893E+00  3.000E+02  2.938E+02
  1.417E-02  3.630E-01  1.013E+05 -7.460E-02  2.894E+00  3.000E+02  2.938E+02
  1.417E-02  3.693E-01  1.013E+05 -7.231E-02  2.895E+00  3.000E+02  2.938E+02
  1.417E-02  3.756E-01  1.013E+05 -7.020E-02  2.895E+00  3.000E+02  2.938E+02
  1.417E-02  3.819E-01  1.013E+05 -6.855E-02  2.895E+00  3.000E+02  2.938E+02
  1.417E-02  3.882E-01  1.013E+05 -6.659E-02  2.894E+00  3.000E+02  2.938E+02
  1.417E-02  3.945E-01  1.013E+05 -6.472E-02  2.893E+00  3.000E+02  2.938E+02
  1.417E-02  4.008E-01  1.013E+05 -6.343E-02  2.892E+00  3.000E+02  2.938E+02
  1.417E-02  4.072E-01  1.013E+05 -6.223E-02  2.890E+00  3.000E+02  2.938E+02
  1.417E-02  4.135E-01  1.013E+05 -6.107E-02  2.888E+00  3.000E+02  2.938E+02
  1.417E-02  4.198E-01  1.013E+05 -5.999E-02  2.886E+00  3.000E+02  2.938E+02
  1.417E-02  4.261E-01  1.013E+05 -5.940E-02  2.883E+00  3.000E+02  2.938E+02
  1.417E-02  4.324E-01  1.013E+05 -5.881E-02  2.880E+00  3.000E+02  2.938E+02
  1.417E-02  4.387E-01  1.013E+05 -5.781E-02  2.876E+00  3.000E+02  2.938E+02
  1.417E-02  4.450E-01  1.013E+05 -5.688E-02  2.874E+00  3.000E+02  2.938E+02
  1.417E-02  4.513E-01  1.013E+05 -5.645E-02  2.870E+00  3.000E+02  2.938E+02
  1.417E-02  4.577E-01  1.013E+05 -5.606E-02  2.866E+00  3.000E+02  2.938E+02
  1.417E-02  4.640E-01  1.013E+05 -5.565E-02  2.862E+00  3.000E+02  2.938E+02
  1.417E-02  4.703E-01  1.013E+05 -5.523E-02  2.859E+00  3.000E+02  2.938E+02
  1.417E-02  4.766E-01  1.013E+05 -5.480E-02  2.854E+00  3.000E+02  2.938E+02
  1.417E-02  4.829E-01  1.013E+05 -5.434E-02  2.849E+00  3.000E+02  2.938E+02
  1.417E-02  4.892E-01  1.013E+05 -5.383E-02  2.844E+00  3.000E+02  2.938E+02
  1.417E-02  4.955E-01  1.013E+05 -5.330E-02  2.840E+00  3.000E+02  2.938E+02
  1.417E-02  5.018E-01  1.013E+05 -5.235E-02  2.823E+00  3.000E+02  2.938E+02
  1.417E-02  5.050E-01  1.013E+05 -5.235E-02  2.823E+00  3.000E+02  2.938E+02
  4.252E-02  0.000E+00  1.013E+05 -8.603E-01  6.500E-02  3.000E+02  2.935E+02
  4.252E-02  3.156E-03  1.013E+05 -8.603E-01  1.167E+00  3.000E+02  2.935E+02
  4.252E-02  9.469E-03  1.013E+05 -9.790E-01  1.681E+00  3.000E+02  2.935E+02
  4.252E-02  1.578E-02  1.013E+05 -1.086E+00  2.252E+00  3.000E+02  2.935E+02
  4.252E-02  2.209E-02  1.013E+05 -1.175E+00  2.729E+00  3.000E+02  2.935E+02
  4.252E-02  2.841E-02  1.013E+05 -1.253E+00  3.101E+00  3.000E+02  2.935E+02
  4.252E-02  3.472E-02  1.013E+05 -1.303E+00  3.339E+00  3.000E+02  2.935E+02
  4.252E-02  4.103E-02  1.013E+05 -1.332E+00  3.496E+00  3.000E+02  2.935E+02
  4.252E-02  4.734E-02  1.013E+05 -1.342E+00  3.601E+00  3.000E+02  2.936E+02
  4.252E-02  5.366E-02  1.013E+05 -1.338E+00  3.668E+00  3.000E+02  2.936E+02
  4.252E-02  5.997E-02  1.013E+05 -1.322E+00  3.703E+00  3.000E+02  2.936E+02
  4.252E-02  6.628E-02  1.013E+05 -1.296E+00  3.711E+00  3.000E+02  2.936E+02
  4.252E-02  7.259E-02  1.013E+05 -1.263E+00  3.699E+00  3.000E+02  2.936E+02
  4.252E-02  7.891E-02  1.013E+05 -1.225E+00  3.671E+00  3.000E+02  2.936E+02
  4.252E-02  8.522E-02  1.013E+05 -1.184E+00  3.634E+00  3.000E+02  2.936E+02
  4.252E-02  9.153E-02  1.013E+05 -1.143E+00  3.590E+00  3.000E+02  2.936E+02
  4.252E-02  9.784E-02  1.013E+05 -1.101E+00  3.544E+00  3.000E+02  2.936E+02
  4.252E-02  1.042E-01  1.013E+05 -1.060E+00  3.502E+00  3.000E+02  2.937E+02
  4.252E-02  1.105E-01  1.013E+05 -1.020E+00  3.464E+00  3.000E+02  2.937E+02
  4.252E-02  1.168E-01  1.013E+05 -9.795E-01  3.430E+00  3.000E+02  2.937E+02
  4.252E-02  1.231E-01  1.013E+05 -9.397E-01  3.402E+00  3.000E+02  2.937E+02
  4.252E-02  1.294E-01  1.013E+05 -9.008E-01  3.381E+00  3.000E+02  2.937E+02
  4.252E-02  1.357E-01  1.013E+05 -8.623E-01  3.365E+00  3.000E+02  2.937E+02
  4.252E-02  1.420E-01  1.013E+05 -8.243E-01  3.352E+00  3.000E+02  2.937E+02
  4.252E-02  1.483E-01  1.013E+05 -7.867E-01  3.345E+00  3.000E+02  2.937E+02
  4.252E-02  1.547E-01  1.013E+05 -7.499E-01  3.342E+00  3.000E+02  2.937E+02
  4.252E-02  1.610E-01  1.013E+05 -7.135E-01  3.342E+00  3.000E+02  2.937E+02
  4.252E-02  1.673E-01  1.013E+05 -6.776E-01  3.346E+00  3.000E+02  2.937E+02
  4.252E-02  1.736E-01  1.013E+05 -6.423E-01  3.353E+00  3.000E+02  2.937E+02
  4.252E-02  1.799E-01  1.013E+05 -6.076E-01  3.359E+00  3.000E+02  2.937E+02
  4.252E-02  1.862E-01  1.013E+05 -5.740E-01  3.367E+00  3.000E+02  2.937E+02
  4.252E-02  1.925E-01  1.013E+05 -5.412E-01  3.374E+00  3.000E+02  2.938E+02
  4.252E-02  1.988E-01  1.013E+05 -5.093E-01  3.380E+00  3.000E+02  2.938E+02
  4.252E-02  2.052E-01  1.013E+05 -4.785E-01  3.386E+00  3.000E+02  2.938E+02
  4.252E-02  2.115E-01  1.013E+05 -4.486E-01  3.390E+00  3.000E+02  2.938E+02
  4.252E-02  2.178E-01  1.013E+05 -4.200E-01  3.393E+00  3.000E+02  2.938E+02
  4.252E-02  2.241E-01  1.013E+05 -3.924E-01  3.395E+00  3.000E+02  2.938E+02
  4.252E-02  2.304E-01  1.013E+05 -3.662E-01  3.395E+00  3.000E+02  2.938E+02
  4.252E-02  2.367E-01  1.013E+05 -3.413E-01  3.393E+00  3.000E+02  2.938E+02
  4.252E-02  2.430E-01  1.013E+05 -3.177E-01  3.389E+00  3.000E+02  2.938E+02
  4.252E-02  2.493E-01  1.013E+05 -2.950E-01  3.384E+00  3.000E+02  2.938E+02
  4.252E-02  2.557E-01  1.013E+05 -2.735E-01  3.377E+00  3.000E+02  2.938E+02
  4.252E-02  2.620E-01  1.013E+05 -2.529E-01  3.369E+00  3.000E+02  2.938E+02
  4.252E-02  2.683E-01  1.013E+05 -2.333E-01  3.358E+00  3.000E+02  2.938E+02
  4.252E-02  2.746E-01  1.013E+05 -2.148E-01  3.346E+00  3.000E+02  2.938E+02
  4.252E-02  2.809E-01  1.013E+05 -1.972E-01  3.331E+00  3.000E+02  2.938E+02
  4.252E-02  2.872E-01  1.013E+05 -1.806E-01  3.316E+00  3.000E+02  2.938E+02
  4.252E-02  2.935E-01  1.013E+05 -1.651E-01  3.299E+00  3.000E+02  2.938E+02
  4.252E-02  2.998E-01  1.013E+05 -1.507E-01  3.282E+00  3.000E+02  2.938E+02
  4.252E-02  3.062E-01  1.013E+05 -1.373E-01  3.263E+00  3.000E+02  2.938E+02
  4.252E-02  3.125E-01  1.013E+05 -1.247E-01  3.243E+00  3.000E+02  2.938E+02
  4.252E-02  3.188E-01  1.013E+05 -1.130E-01  3.223E+00  3.000E+02  2.938E+02
  4.252E-02  3.251E-01  1.013E+05 -1.021E-01  3.202E+00  3.000E+02  2.938E+02
  4.252E-02  3.314E-01  1.013E+05 -9.209E-02  3.179E+00  3.000E+02  2.938E+02
  4.252E-02  3.377E-01  1.013E+05 -8.316E-02  3.158E+00  3.000E+02  2.938E+02
  4.252E-02  3.440E-01  1.013E+05 -7.530E-02  3.135E+00  3.000E+02  2.939E+02
  4.252E-02  3.503E-01  1.013E+05 -6.815E-02  3.112E+00  3.000E+02  2.939E+02
  4.252E-02  3.567E-01  1.013E+05 -6.150E-02  3.090E+00  3.000E+02  2.939E+02
  4.252E-02  3.630E-01  1.013E+05 -5.553E-02  3.067E+00  3.000E+02  2.939E+02
  4.252E-02  3.693E-01  1.013E+05 -5.027E-02  3.043E+00  3.000E+02  2.939E+02
  4.252E-02  3.756E-01  1.013E+05 -4.552E-02  3.020E+00  3.000E+02  2.939E+02
  4.252E-02  3.819E-01  1.013E+05 -4.124E-02  2.997E+00  3.000E+02  2.939E+02
  4.252E-02  3.882E-01  1.013E+05 -3.745E-02  2.974E+00  3.000E+02  2.939E+02
  4.252E-02  3.945E-01  1.013E+05 -3.420E-02  2.950E+00  3.000E+02  2.939E+02
  4.252E-02  4.008E-01  1.013E+05 -3.149E-02  2.926E+00  3.000E+02  2.939E+02
  4.252E-02  4.072E-01  1.013E+05 -2.917E-02  2.903E+00  3.000E+02  2.939E+02
  4.252E-02  4.135E-01  1.013E+05 -2.716E-02  2.880E+00  3.000E+02  2.939E+02
  4.252E-02  4.198E-01  1.013E+05 -2.543E-02  2.856E+00  3.000E+02  2.939E+02
  4.252E-02  4.261E-01  1.013E+05 -2.398E-02  2.832E+00  3.000E+02  2.939E+02
  4.252E-02  4.324E-01  1.013E+05 -2.270E-02  2.810E+00  3.000E+02  2.939E+02
  4.252E-02  4.387E-01  1.013E+05 -2.151E-02  2.786E+00  3.000E+02  2.939E+02
  4.252E-02  4.450E-01  1.013E+05 -2.049E-02  2.763E+00  3.000E+02  2.939E+02
  4.252E-02  4.513E-01  1.013E+05 -1.971E-02  2.739E+00  3.000E+02  2.939E+02
  4.252E-02  4.577E-01  1.013E+05 -1.898E-02  2.715E+00  3.000E+02  2.939E+02
  4.252E-02  4.640E-01  1.013E+05 -1.824E-02  2.692E+00  3.000E+02  2.939E+02
  4.252E-02  4.703E-01  1.013E+05 -1.752E-02  2.670E+00  3.000E+02  2.939E+02
  4.252E-02  4.766E-01  1.013E+05 -1.693E-02  2.647E+00  3.000E+02  2.939E+02
  4.252E-02  4.829E-01  1.013E+05 -1.628E-02  2.623E+00  3.000E+02  2.939E+02
  4.252E-02  4.892E-01  1.013E+05 -1.534E-02  2.598E+00  3.000E+02  2.939E+02
  4.252E-02  4.955E-01  1.013E+05 -1.434E-02  2.579E+00  3.000E+02  2.939E+02
  4.252E-02  5.018E-01  1.013E+05 -1.276E-02  2.531E+00  3.000E+02  2.939E+02
  4.252E-02  5.050E-01  1.013E+05 -1.276E-02  2.531E+00  3.000E+02  2.939E+02
  7.087E-02  0.000E+00  1.013E+05 -2.818E+00  6.500E-02  3.000E+02  2.936E+02
  7.087E-02  3.156E-03  1.013E+05 -2.818E+00  1.035E+00  3.000E+02  2.936E+02
  7.087E-02  9.469E-03  1.013E+05 -2.769E+00  1.438E+00  3.000E+02  2.936E+02
  7.087E-02  1.578E-02  1.013E+05 -2.723E+00  2.061E+00  3.000E+02  2.936E+02
  7.087E-02  2.209E-02  1.013E+05 -2.671E+00  2.657E+00  3.000E+02  2.936E+02
  7.087E-02  2.841E-02  1.013E+05 -2.619E+00  3.146E+00  3.000E+02  2.936E+02
  7.087E-02  3.472E-02  1.013E+05 -2.554E+00  3.500E+00  3.000E+02  2.936E+02
  7.087E-02  4.103E-02  1.013E+05 -2.476E+00  3.755E+00  3.000E+02  2.936E+02
  7.087E-02  4.734E-02  1.013E+05 -2.391E+00  3.944E+00  3.000E+02  2.936E+02
  7.087E-02  5.366E-02  1.013E+05 -2.301E+00  4.084E+00  3.000E+02  2.936E+02
  7.087E-02  5.997E-02  1.013E+05 -2.210E+00  4.184E+00  3.000E+02  2.936E+02
  7.087E-02  6.628E-02  1.013E+05 -2.119E+00  4.254E+00  3.000E+02  2.937E+02
  7.087E-02  7.259E-02  1.013E+05 -2.029E+00  4.301E+00  3.000E+02  2.937E+02
  7.087E-02  7.891E-02  1.013E+05 -1.940E+00  4.328E+00  3.000E+02  2.937E+02
  7.087E-02  8.522E-02  1.013E+05 -1.852E+00  4.341E+00  3.000E+02  2.937E+02
  7.087E-02  9.153E-02  1.013E+05 -1.765E+00  4.340E+00  3.000E+02  2.937E+02
  7.087E-02  9.784E-02  1.013E+05 -1.679E+00  4.328E+00  3.000E+02  2.937E+02
  7.087E-02  1.042E-01  1.013E+05 -1.593E+00  4.307E+00  3.000E+02  2.937E+02
  7.087E-02  1.105E-01  1.013E+05 -1.509E+00  4.279E+00  3.000E+02  2.937E+02
  7.087E-02  1.168E-01  1.013E+05 -1.426E+00  4.244E+00  3.000E+02  2.937E+02
  7.087E-02  1.231E-01  1.013E+05 -1.346E+00  4.203E+00  3.000E+02  2.937E+02
  7.087E-02  1.294E-01  1.013E+05 -1.268E+00  4.158E+00  3.000E+02  2.938E+02
  7.087E-02  1.357E-01  1.013E+05 -1.192E+00  4.109E+00  3.000E+02  2.938E+02
  7.087E-02  1.420E-01  1.013E+05 -1.118E+00  4.058E+00  3.000E+02  2.938E+02
  7.087E-02  1.483E-01  1.013E+05 -1.048E+00  4.005E+00  3.000E+02  2.938E+02
  7.087E-02  1.547E-01  1.013E+05 -9.798E-01  3.950E+00  3.000E+02  2.938E+02
  7.087E-02  1.610E-01  1.013E+05 -9.149E-01  3.895E+00  3.000E+02  2.938E+02
  7.087E-02  1.673E-01  1.013E+05 -8.529E-01  3.839E+00  3.000E+02  2.938E+02
  7.087E-02  1.736E-01  1.013E+05 -7.941E-01  3.783E+00  3.000E+02  2.938E+02
  7.087E-02  1.799E-01  1.013E+05 -7.382E-01  3.728E+00  3.000E+02  2.938E+02
  7.087E-02  1.862E-01  1.013E+05 -6.851E-01  3.673E+00  3.000E+02  2.938E+02
  7.087E-02  1.925E-01  1.013E+05 -6.345E-01  3.618E+00  3.000E+02  2.939E+02
  7.087E-02  1.988E-01  1.013E+05 -5.863E-01  3.564E+00  3.000E+02  2.939E+02
  7.087E-02  2.052E-01  1.013E+05 -5.403E-01  3.510E+00  3.000E+02  2.939E+02
  7.087E-02  2.115E-01  1.013E+05 -4.964E-01  3.456E+00  3.000E+02  2.939E+02
  7.087E-02  2.178E-01  1.013E+05 -4.546E-01  3.403E+00  3.000E+02  2.939E+02
  7.087E-02  2.241E-01  1.013E+05 -4.150E-01  3.350E+00  3.000E+02  2.939E+02
  7.087E-02  2.304E-01  1.013E+05 -3.777E-01  3.297E+00  3.000E+02  2.939E+02
  7.087E-02  2.367E-01  1.013E+05 -3.423E-01  3.243E+00  3.000E+02  2.939E+02
  7.087E-02  2.430E-01  1.013E+05 -3.089E-01  3.189E+00  3.000E+02  2.939E+02
  7.087E-02  2.493E-01  1.013E+05 -2.775E-01  3.135E+00  3.000E+02  2.939E+02
  7.087E-02  2.557E-01  1.013E+05 -2.478E-01  3.081E+00  3.000E+02  2.939E+02
  7.087E-02  2.620E-01  1.013E+05 -2.198E-01  3.028E+00  3.000E+02  2.939E+02
  7.087E-02  2.683E-01  1.013E+05 -1.934E-01  2.973E+00  3.000E+02  2.939E+02
  7.087E-02  2.746E-01  1.013E+05 -1.685E-01  2.919E+00  3.000E+02  2.940E+02
  7.087E-02  2.809E-01  1.013E+05 -1.452E-01  2.864E+00  3.000E+02  2.940E+02
  7.087E-02  2.872E-01  1.013E+05 -1.234E-01  2.809E+00  3.000E+02  2.940E+02
  7.087E-02  2.935E-01  1.013E+05 -1.031E-01  2.754E+00  3.000E+02  2.940E+02
  7.087E-02  2.998E-01  1.013E+05 -8.433E-02  2.699E+00  3.000E+02  2.940E+02
  7.087E-02  3.062E-01  1.013E+05 -6.717E-02  2.645E+00  3.000E+02  2.940E+02
  7.087E-02  3.125E-01  1.013E+05 -5.143E-02  2.590E+00  3.000E+02  2.940E+02
  7.087E-02  3.188E-01  1.013E+05 -3.713E-02  2.535E+00  3.000E+02  2.940E+02
  7.087E-02  3.251E-01  1.013E+05 -2.434E-02  2.481E+00  3.000E+02  2.940E+02
  7.087E-02  3.314E-01  1.013E+05 -1.297E-02  2.426E+00  3.000E+02  2.940E+02
  7.087E-02  3.377E-01  1.013E+05 -2.982E-03  2.371E+00  3.000E+02  2.940E+02
  7.087E-02  3.440E-01  1.013E+05  5.637E-03  2.317E+00  3.000E+02  2.940E+02
  7.087E-02  3.503E-01  1.013E+05  1.314E-02  2.264E+00  3.000E+02  2.940E+02
  7.087E-02  3.567E-01  1.013E+05  1.967E-02  2.213E+00  3.000E+02  2.940E+02
  7.087E-02  3.630E-01  1.013E+05  2.517E-02  2.161E+00  3.000E+02  2.940E+02
  7.087E-02  3.693E-01  1.013E+05  2.982E-02  2.111E+00  3.000E+02  2.940E+02
  7.087E-02  3.756E-01  1.013E+05  3.377E-02  2.062E+00  3.000E+02  2.940E+02
  7.087E-02  3.819E-01  1.013E+05  3.699E-02  2.013E+00  3.000E+02  2.940E+02
  7.087E-02  3.882E-01  1.013E+05  3.947E-02  1.963E+00  3.000E+02  2.940E+02
  7.087E-02  3.945E-01  1.013E+05  4.140E-02  1.915E+00  3.000E+02  2.940E+02
  7.087E-02  4.008E-01  1.013E+05  4.287E-02  1.867E+00  3.000E+02  2.940E+02
  7.087E-02  4.072E-01  1.013E+05  4.384E-02  1.820E+00  3.000E+02  2.940E+02
  7.087E-02  4.135E-01  1.013E+05  4.429E-02  1.773E+00  3.000E+02  2.940E+02
  7.087E-02  4.198E-01  1.013E+05  4.443E-02  1.728E+00  3.000E+02  2.941E+02
  7.087E-02  4.261E-01  1.013E+05  4.435E-02  1.682E+00  3.000E+02  2.941E+02
  7.087E-02  4.324E-01  1.013E+05  4.388E-02  1.638E+00  3.000E+02  2.941E+02
  7.087E-02  4.387E-01  1.013E+05  4.310E-02  1.594E+00  3.000E+02  2.941E+02
  7.087E-02  4.450E-01  1.013E+05  4.212E-02  1.550E+00  3.000E+02  2.941E+02
  7.087E-02  4.513E-01  1.013E+05  4.094E-02  1.507E+00  3.000E+02  2.941E+02
  7.087E-02  4.577E-01  1.013E+05  3.967E-02  1.465E+00  3.000E+02  2.941E+02
  7.087E-02  4.640E-01  1.013E+05  3.830E-02  1.423E+00  3.000E+02  2.941E+02
  7.087E-02  4.703E-01  1.013E+05  3.671E-02  1.382E+00  3.000E+02  2.941E+02
  7.087E-02  4.766E-01  1.013E+05  3.499E-02  1.341E+00  3.000E+02  2.941E+02
  7.087E-02  4.829E-01  1.013E+05  3.334E-02  1.301E+00  3.000E+02  2.941E+02
  7.087E-02  4.892E-01  1.013E+05  3.170E-02  1.260E+00  3.000E+02  2.941E+02
  7.087E-02  4.955E-01  1.013E+05  3.005E-02  1.224E+00  3.000E+02  2.941E+02
  7.087E-02  5.018E-01  1.013E+05  2.797E-02  1.160E+00  3.000E+02  2.941E+02
  7.087E-02  5.050E-01  1.013E+05  2.797E-02  1.160E+00  3.000E+02  2.941E+02
  9.922E-02  0.000E+00  1.013E+05 -3.006E+00  6.500E-02  3.000E+02  2.937E+02
  9.922E-02  3.156E-03  1.013E+05 -3.006E+00  1.039E+00  3.000E+02  2.937E+02
  9.922E-02  9.469E-03  1.013E+05 -2.712E+00  1.380E+00  3.000E+02  2.937E+02
  9.922E-02  1.578E-02  1.013E+05 -2.502E+00  1.922E+00  3.000E+02  2.937E+02
  9.922E-02  2.209E-02  1.013E+05 -2.331E+00  2.386E+00  3.000E+02  2.937E+02
  9.922E-02  2.841E-02  1.013E+05 -2.179E+00  2.728E+00  3.000E+02  2.937E+02
  9.922E-02  3.472E-02  1.013E+05 -2.036E+00  2.974E+00  3.000E+02  2.938E+02
  9.922E-02  4.103E-02  1.013E+05 -1.899E+00  3.154E+00  3.000E+02  2.938E+02
  9.922E-02  4.734E-02  1.013E+05 -1.768E+00  3.285E+00  3.000E+02  2.938E+02
  9.922E-02  5.366E-02  1.013E+05 -1.644E+00  3.376E+00  3.000E+02  2.938E+02
  9.922E-02  5.997E-02  1.013E+05 -1.529E+00  3.434E+00  3.000E+02  2.938E+02
  9.922E-02  6.628E-02  1.013E+05 -1.424E+00  3.465E+00  3.000E+02  2.938E+02
  9.922E-02  7.259E-02  1.013E+05 -1.326E+00  3.464E+00  3.000E+02  2.938E+02
  9.922E-02  7.891E-02  1.013E+05 -1.236E+00  3.441E+00  3.000E+02  2.939E+02
  9.922E-02  8.522E-02  1.013E+05 -1.153E+00  3.402E+00  3.000E+02  2.939E+02
  9.922E-02  9.153E-02  1.013E+05 -1.074E+00  3.349E+00  3.000E+02  2.939E+02
  9.922E-02  9.784E-02  1.013E+05 -1.001E+00  3.285E+00  3.000E+02  2.939E+02
  9.922E-02  1.042E-01  1.013E+05 -9.324E-01  3.215E+00  3.000E+02  2.939E+02
  9.922E-02  1.105E-01  1.013E+05 -8.680E-01  3.139E+00  3.000E+02  2.939E+02
  9.922E-02  1.168E-01  1.013E+05 -8.074E-01  3.060E+00  3.000E+02  2.939E+02
  9.922E-02  1.231E-01  1.013E+05 -7.501E-01  2.978E+00  3.000E+02  2.939E+02
  9.922E-02  1.294E-01  1.013E+05 -6.959E-01  2.894E+00  3.000E+02  2.939E+02
  9.922E-02  1.357E-01  1.013E+05 -6.446E-01  2.808E+00  3.000E+02  2.940E+02
  9.922E-02  1.420E-01  1.013E+05 -5.963E-01  2.723E+00  3.000E+02  2.940E+02
  9.922E-02  1.483E-01  1.013E+05 -5.509E-01  2.638E+00  3.000E+02  2.940E+02
  9.922E-02  1.547E-01  1.013E+05 -5.082E-01  2.556E+00  3.000E+02  2.940E+02
  9.922E-02  1.610E-01  1.013E+05 -4.682E-01  2.475E+00  3.000E+02  2.940E+02
  9.922E-02  1.673E-01  1.013E+05 -4.310E-01  2.396E+00  3.000E+02  2.940E+02
  9.922E-02  1.736E-01  1.013E+05 -3.969E-01  2.319E+00  3.000E+02  2.940E+02
  9.922E-02  1.799E-01  1.013E+05 -3.656E-01  2.244E+00  3.000E+02  2.940E+02
  9.922E-02  1.862E-01  1.013E+05 -3.367E-01  2.172E+00  3.000E+02  2.940E+02
  9.922E-02  1.925E-01  1.013E+05 -3.097E-01  2.104E+00  3.000E+02  2.940E+02
  9.922E-02  1.988E-01  1.013E+05 -2.843E-01  2.037E+00  3.000E+02  2.940E+02
  9.922E-02  2.052E-01  1.013E+05 -2.602E-01  1.972E+00  3.000E+02  2.941E+02
  9.922E-02  2.115E-01  1.013E+05 -2.374E-01  1.908E+00  3.000E+02  2.941E+02
  9.922E-02  2.178E-01  1.013E+05 -2.160E-01  1.844E+00  3.000E+02  2.941E+02
  9.922E-02  2.241E-01  1.013E+05 -1.960E-01  1.779E+00  3.000E+02  2.941E+02
  9.922E-02  2.304E-01  1.013E+05 -1.773E-01  1.714E+00  3.000E+02  2.941E+02
  9.922E-02  2.367E-01  1.013E+05 -1.593E-01  1.649E+00  3.000E+02  2.941E+02
  9.922E-02  2.430E-01  1.013E+05 -1.414E-01  1.584E+00  3.000E+02  2.941E+02
  9.922E-02  2.493E-01  1.013E+05 -1.239E-01  1.521E+00  3.000E+02  2.941E+02
  9.922E-02  2.557E-01  1.013E+05 -1.071E-01  1.460E+00  3.000E+02  2.941E+02
  9.922E-02  2.620E-01  1.013E+05 -9.117E-02  1.401E+00  3.000E+02  2.941E+02
  9.922E-02  2.683E-01  1.013E+05 -7.617E-02  1.342E+00  3.000E+02  2.941E+02
  9.922E-02  2.746E-01  1.013E+05 -6.199E-02  1.283E+00  3.000E+02  2.941E+02
  9.922E-02  2.809E-01  1.013E+05 -4.871E-02  1.225E+00  3.000E+02  2.941E+02
  9.922E-02  2.872E-01  1.013E+05 -3.650E-02  1.169E+00  3.000E+02  2.941E+02
  9.922E-02  2.935E-01  1.013E+05 -2.546E-02  1.113E+00  3.000E+02  2.941E+02
  9.922E-02  2.998E-01  1.013E+05 -1.535E-02  1.056E+00  3.000E+02  2.941E+02
  9.922E-02  3.062E-01  1.013E+05 -6.175E-03  1.001E+00  3.000E+02  2.941E+02
  9.922E-02  3.125E-01  1.013E+05  1.875E-03  9.475E-01  3.000E+02  2.941E+02
  9.922E-02  3.188E-01  1.013E+05  8.925E-03  8.942E-01  3.000E+02  2.942E+02
  9.922E-02  3.251E-01  1.013E+05  1.494E-02  8.407E-01  3.000E+02  2.942E+02
  9.922E-02  3.314E-01  1.013E+05  1.957E-02  7.869E-01  3.000E+02  2.942E+02
  9.922E-02  3.377E-01  1.013E+05  2.288E-02  7.338E-01  3.000E+02  2.942E+02