VARIABLES="XP","YP","P","U","V","TS","TF"
ZONE T="Zone 001"I=    82 J=    12 F=POINT
  0.000E+00  0.000E+00  1.013E+05  0.000E+00  0.000E+00  3.000E+02  2.930E+02
  0.000E+00  3.156E-03  1.013E+05  0.000E+00  0.000E+00  3.000E+02  2.930E+02
  0.000E+00  9.469E-03  1.013E+05  0.000E+00  0.000E+00  3.000E+02  2.930E+02
  0.000E+00  1.578E-02  1.013E+05  0.000E+00  0.000E+00  3.000E+02  2.930E+02
  0.000E+00  2.209E-02  1.013E+05  0.000E+00  0.000E+00  3.000E+02  2.930E+02
  0.000E+00  2.841E-02  1.013E+05  0.000E+00  0.000E+00  3.000E+02  2.930E+02
  0.000E+00  3.472E-02  1.013E+05  0.000E+00  0.000E+00  3.000E+02  2.930E+02
  0.000E+00  4.103E-02  1.013E+05  0.000E+00  0.000E+00  3.000E+02  2.930E+02
  0.000E+00  4.734E-02  1.013E+05  0.000E+00  0.000E+00  3.000E+02  2.930E+02
  0.000E+00  5.366E-02  1.013E+05  0.000E+00  0.000E+00  3.000E+02  2.930E+02
  0.000E+00  5.997E-02  1.013E+05  0.000E+00  0.000E+00  3.000E+02  2.930E+02
  0.000E+00  6.628E-02  1.013E+05  0.000E+00  0.000E+00  3.000E+02  2.930E+02
  0.000E+00  7.259E-02  1.013E+05  0.000E+00  0.000E+00  3.000E+02  2.930E+02
  0.000E+00  7.891E-02  1.013E+05  0.000E+00  0.000E+00  3.000E+02  2.930E+02
  0.000E+00  8.522E-02  1.013E+05  0.000E+00  0.000E+00  3.000E+02  2.930E+02
  0.000E+00  9.153E-02  1.013E+05  0.000E+00  0.000E+00  3.000E+02  2.930E+02
  0.000E+00  9.784E-02  1.013E+05  0.000E+00  0.000E+00  3.000E+02  2.930E+02
  0.000E+00  1.042E-01  1.013E+05  0.000E+00  0.000E+00  3.000E+02  2.930E+02
  0.000E+00  1.105E-01  1.013E+05  0.000E+00  0.000E+00  3.000E+02  2.930E+02
  0.000E+00  1.168E-01  1.013E+05  0.000E+00  0.000E+00  3.000E+02  2.930E+02
  0.000E+00  1.231E-01  1.013E+05  0.000E+00  0.000E+00  3.000E+02  2.930E+02
  0.000E+00  1.294E-01  1.013E+05  0.000E+00  0.000E+00  3.000E+02  2.930E+02
  0.000E+00  1.357E-01  1.013E+05  0.000E+00  0.000E+00  3.000E+02  2.930E+02
  0.000E+00  1.420E-01  1.013E+05  0.000E+00  0.000E+00  3.000E+02  2.930E+02
  0.000E+00  1.483E-01  1.013E+05  0.000E+00  0.000E+00  3.000E+02  2.930E+02
  0.000E+00  1.547E-01  1.013E+05  0.000E+00  0.000E+00  3.000E+02  2.930E+02
  0.000E+00  1.610E-01  1.013E+05  0.000E+00  0.000E+00  3.000E+02  2.930E+02
  0.000E+00  1.673E-01  1.013E+05  0.000E+00  0.000E+00  3.000E+02  2.930E+02
  0.000E+00  1.736E-01  1.013E+05  0.000E+00  0.000E+00  3.000E+02  2.930E+02
  0.000E+00  1.799E-01  1.013E+05  0.000E+00  0.000E+00  3.000E+02  2.930E+02
  0.000E+00  1.862E-01  1.013E+05  0.000E+00  0.000E+00  3.000E+02  2.930E+02
  0.000E+00  1.925E-01  1.013E+05  0.000E+00  0.000E+00  3.000E+02  2.930E+02
  0.000E+00  1.988E-01  1.013E+05  0.000E+00  0.000E+00  3.000E+02  2.930E+02
  0.000E+00  2.052E-01  1.013E+05  0.000E+00  0.000E+00  3.000E+02  2.930E+02
  0.000E+00  2.115E-01  1.013E+05  0.000E+00  0.000E+00  3.000E+02  2.930E+02
  0.000E+00  2.178E-01  1.013E+05  0.000E+00  0.000E+00  3.000E+02  2.930E+02
  0.000E+00  2.241E-01  1.013E+05  0.000E+00  0.000E+00  3.000E+02  2.930E+02
  0.000E+00  2.304E-01  1.013E+05  0.000E+00  0.000E+00  3.000E+02  2.930E+02
  0.000E+00  2.367E-01  1.013E+05  0.000E+00  0.000E+00  3.000E+02  2.930E+02
  0.000E+00  2.430E-01  1.013E+05  0.000E+00  0.000E+00  3.000E+02  2.930E+02
  0.000E+00  2.493E-01  1.013E+05  0.000E+00  0.000E+00  3.000E+02  2.930E+02
  0.000E+00  2.557E-01  1.013E+05  0.000E+00  0.000E+00  3.000E+02  2.930E+02
  0.000E+00  2.620E-01  1.013E+05  0.000E+00  0.000E+00  3.000E+02  2.930E+02
  0.000E+00  2.683E-01  1.013E+05  0.000E+00  0.000E+00  3.000E+02  2.930E+02
  0.000E+00  2.746E-01  1.013E+05  0.000E+00  0.000E+00  3.000E+02  2.930E+02
  0.000E+00  2.809E-01  1.013E+05  0.000E+00  0.000E+00  3.000E+02  2.930E+02
  0.000E+00  2.872E-01  1.013E+05  0.000E+00  0.000E+00  3.000E+02  2.930E+02
  0.000E+00  2.935E-01  1.013E+05  0.000E+00  0.000E+00  3.000E+02  2.930E+02
  0.000E+00  2.998E-01  1.013E+05  0.000E+00  0.000E+00  3.000E+02  2.930E+02
  0.000E+00  3.062E-01  1.013E+05  0.000E+00  0.000E+00  3.000E+02  2.930E+02
  0.000E+00  3.125E-01  1.013E+05  0.000E+00  0.000E+00  3.000E+02  2.930E+02
  0.000E+00  3.188E-01  1.013E+05  0.000E+00  0.000E+00  3.000E+02  2.930E+02
  0.000E+00  3.251E-01  1.013E+05  0.000E+00  0.000E+00  3.000E+02  2.930E+02
  0.000E+00  3.314E-01  1.013E+05  0.000E+00  0.000E+00  3.000E+02  2.930E+02
  0.000E+00  3.377E-01  1.013E+05  0.000E+00  0.000E+00  3.000E+02  2.930E+02
  0.000E+00  3.440E-01  1.013E+05  0.000E+00  0.000E+00  3.000E+02  2.930E+02
  0.000E+00  3.503E-01  1.013E+05  0.000E+00  0.000E+00  3.000E+02  2.930E+02
  0.000E+00  3.567E-01  1.013E+05  0.000E+00  0.000E+00  3.000E+02  2.930E+02
  0.000E+00  3.630E-01  1.013E+05  0.000E+00  0.000E+00  3.000E+02  2.930E+02
  0.000E+00  3.693E-01  1.013E+05  0.000E+00  0.000E+00  3.000E+02  2.930E+02
  0.000E+00  3.756E-01  1.013E+05  0.000E+00  0.000E+00  3.000E+02  2.930E+02
  0.000E+00  3.819E-01  1.013E+05  0.000E+00  0.000E+00  3.000E+02  2.930E+02
  0.000E+00  3.882E-01  1.013E+05  0.000E+00  0.000E+00  3.000E+02  2.930E+02
  0.000E+00  3.945E-01  1.013E+05  0.000E+00  0.000E+00  3.000E+02  2.930E+02
  0.000E+00  4.008E-01  1.013E+05  0.000E+00  0.000E+00  3.000E+02  2.930E+02
  0.000E+00  4.072E-01  1.013E+05  0.000E+00  0.000E+00  3.000E+02  2.930E+02
  0.000E+00  4.135E-01  1.013E+05  0.000E+00  0.000E+00  3.000E+02  2.930E+02
  0.000E+00  4.198E-01  1.013E+05  0.000E+00  0.000E+00  3.000E+02  2.930E+02
  0.000E+00  4.261E-01  1.013E+05  0.000E+00  0.000E+00  3.000E+02  2.930E+02
  0.000E+00  4.324E-01  1.013E+05  0.000E+00  0.000E+00  3.000E+02  2.930E+02
  0.000E+00  4.387E-01  1.013E+05  0.000E+00  0.000E+00  3.000E+02  2.930E+02
  0.000E+00  4.450E-01  1.013E+05  0.000E+00  0.000E+00  3.000E+02  2.930E+02
  0.000E+00  4.513E-01  1.013E+05  0.000E+00  0.000E+00  3.000E+02  2.930E+02
  0.000E+00  4.577E-01  1.013E+05  0.000E+00  0.000E+00  3.000E+02  2.930E+02
  0.000E+00  4.640E-01  1.013E+05  0.000E+00  0.000E+00  3.000E+02  2.930E+02
  0.000E+00  4.703E-01  1.013E+05  0.000E+00  0.000E+00  3.000E+02  2.930E+02
  0.000E+00  4.766E-01  1.013E+05  0.000E+00  0.000E+00  3.000E+02  2.930E+02
  0.000E+00  4.829E-01  1.013E+05  0.000E+00  0.000E+00  3.000E+02  2.930E+02
  0.000E+00  4.892E-01  1.013E+05  0.000E+00  0.000E+00  3.000E+02  2.930E+02
  0.000E+00  4.955E-01  1.013E+05  0.000E+00  0.000E+00  3.000E+02  2.930E+02
  0.000E+00  5.018E-01  1.013E+05  0.000E+00  0.000E+00  3.000E+02  2.930E+02
  0.000E+00  5.050E-01  1.013E+05  0.000E+00  0.000E+00  3.000E+02  2.930E+02
  1.417E-02  0.000E+00  1.013E+05 -5.058E-01  6.500E-02  3.000E+02  2.937E+02
  1.417E-02  3.156E-03  1.013E+05 -5.058E-01  3.406E-01  3.000E+02  2.937E+02
  1.417E-02  9.469E-03  1.013E+05 -3.236E-01  6.878E-01  3.000E+02  2.937E+02
  1.417E-02  1.578E-02  1.013E+05 -1.979E-01  1.087E+00  3.000E+02  2.937E+02
  1.417E-02  2.209E-02  1.013E+05 -1.098E-01  1.359E+00  3.000E+02  2.937E+02
  1.417E-02  2.841E-02  1.013E+05 -4.881E-02  1.507E+00  3.000E+02  2.937E+02
  1.417E-02  3.472E-02  1.013E+05 -6.535E-03  1.591E+00  3.000E+02  2.938E+02
  1.417E-02  4.103E-02  1.013E+05  2.221E-02  1.647E+00  3.000E+02  2.938E+02
  1.417E-02  4.734E-02  1.013E+05  4.084E-02  1.693E+00  3.000E+02  2.938E+02
  1.417E-02  5.366E-02  1.013E+05  5.136E-02  1.736E+00  3.000E+02  2.938E+02
  1.417E-02  5.997E-02  1.013E+05  5.470E-02  1.777E+00  3.000E+02  2.938E+02
  1.417E-02  6.628E-02  1.013E+05  5.115E-02  1.816E+00  3.000E+02  2.938E+02
  1.417E-02  7.259E-02  1.013E+05  4.099E-02  1.851E+00  3.000E+02  2.938E+02
  1.417E-02  7.891E-02  1.013E+05  2.512E-02  1.881E+00  3.000E+02  2.938E+02
  1.417E-02  8.522E-02  1.013E+05  4.532E-03  1.908E+00  3.000E+02  2.938E+02
  1.417E-02  9.153E-02  1.013E+05 -1.927E-02  1.932E+00  3.000E+02  2.938E+02
  1.417E-02  9.784E-02  1.013E+05 -4.540E-02  1.953E+00  3.000E+02  2.938E+02
  1.417E-02  1.042E-01  1.013E+05 -7.245E-02  1.974E+00  3.000E+02  2.938E+02
  1.417E-02  1.105E-01  1.013E+05 -1.003E-01  1.994E+00  3.000E+02  2.938E+02
  1.417E-02  1.168E-01  1.013E+05 -1.279E-01  2.014E+00  3.000E+02  2.938E+02
  1.417E-02  1.231E-01  1.013E+05 -1.544E-01  2.035E+00  3.000E+02  2.938E+02
  1.417E-02  1.294E-01  1.013E+05 -1.799E-01  2.058E+00  3.000E+02  2.938E+02
  1.417E-02  1.357E-01  1.013E+05 -2.031E-01  2.082E+00  3.000E+02  2.938E+02
  1.417E-02  1.420E-01  1.013E+05 -2.238E-01  2.108E+00  3.000E+02  2.938E+02
  1.417E-02  1.483E-01  1.013E+05 -2.422E-01  2.137E+00  3.000E+02  2.938E+02
  1.417E-02  1.547E-01  1.013E+05 -2.584E-01  2.167E+00  3.000E+02  2.938E+02
  1.417E-02  1.610E-01  1.013E+05 -2.719E-01  2.198E+00  3.000E+02  2.938E+02
  1.417E-02  1.673E-01  1.013E+05 -2.827E-01  2.230E+00  3.000E+02  2.938E+02
  1.417E-02  1.736E-01  1.013E+05 -2.910E-01  2.263E+00  3.000E+02  2.938E+02
  1.417E-02  1.799E-01  1.013E+05 -2.964E-01  2.296E+00  3.000E+02  2.938E+02
  1.417E-02  1.862E-01  1.013E+05 -2.994E-01  2.330E+00  3.000E+02  2.938E+02
  1.417E-02  1.925E-01  1.013E+05 -3.010E-01  2.364E+00  3.000E+02  2.938E+02
  1.417E-02  1.988E-01  1.013E+05 -3.009E-01  2.397E+00  3.000E+02  2.938E+02
  1.417E-02  2.052E-01  1.013E+05 -2.992E-01  2.429E+00  3.000E+02  2.938E+02
  1.417E-02  2.115E-01  1.013E+05 -2.963E-01  2.461E+00  3.000E+02  2.938E+02
  1.417E-02  2.178E-01  1.013E+05 -2.930E-01  2.493E+00  3.000E+02  2.938E+02
  1.417E-02  2.241E-01  1.013E+05 -2.891E-01  2.522E+00  3.000E+02  2.938E+02
  1.417E-02  2.304E-01  1.013E+05 -2.843E-01  2.550E+00  3.000E+02  2.938E+02
  1.417E-02  2.367E-01  1.013E+05 -2.793E-01  2.578E+00  3.000E+02  2.938E+02
  1.417E-02  2.430E-01  1.013E+05 -2.741E-01  2.605E+00  3.000E+02  2.938E+02
  1.417E-02  2.493E-01  1.013E+05 -2.686E-01  2.631E+00  3.000E+02  2.938E+02
  1.417E-02  2.557E-01  1.013E+05 -2.624E-01  2.655E+00  3.000E+02  2.938E+02
  1.417E-02  2.620E-01  1.013E+05 -2.552E-01  2.678E+00  3.000E+02  2.938E+02
  1.417E-02  2.683E-01  1.013E+05 -2.477E-01  2.700E+00  3.000E+02  2.938E+02
  1.417E-02  2.746E-01  1.013E+05 -2.399E-01  2.721E+00  3.000E+02  2.938E+02
  1.417E-02  2.809E-01  1.013E+05 -2.315E-01  2.740E+00  3.000E+02  2.938E+02
  1.417E-02  2.872E-01  1.013E+05 -2.226E-01  2.758E+00  3.000E+02  2.938E+02
  1.417E-02  2.935E-01  1.013E+05 -2.132E-01  2.774E+00  3.000E+02  2.938E+02
  1.417E-02  2.998E-01  1.013E+05 -2.035E-01  2.788E+00  3.000E+02  2.938E+02
  1.417E-02  3.062E-01  1.013E+05 -1.935E-01  2.801E+00  3.000E+02  2.938E+02
  1.417E-02  3.125E-01  1.013E+05 -1.836E-01  2.812E+00  3.000E+02  2.938E+02
  1.417E-02  3.188E-01  1.013E+05 -1.735E-01  2.822E+00  3.000E+02  2.938E+02
  1.417E-02  3.251E-01  1.013E+05 -1.635E-01  2.829E+00  3.000E+02  2.938E+02
  1.417E-02  3.314E-01  1.013E+05 -1.538E-01  2.835E+00  3.000E+02  2.938E+02
  1.417E-02  3.377E-01  1.013E+05 -1.443E-01  2.840E+00  3.000E+02  2.938E+02
  1.417E-02  3.440E-01  1.013E+05 -1.354E-01  2.843E+00  3.000E+02  2.938E+02
  1.417E-02  3.503E-01  1.013E+05 -1.267E-01  2.844E+00  3.000E+02  2.938E+02
  1.417E-02  3.567E-01  1.013E+05 -1.184E-01  2.845E+00  3.000E+02  2.938E+02
  1.417E-02  3.630E-01  1.013E+05 -1.107E-01  2.845E+00  3.000E+02  2.938E+02
  1.417E-02  3.693E-01  1.013E+05 -1.035E-01  2.843E+00  3.000E+02  2.938E+02
  1.417E-02  3.756E-01  1.013E+05 -9.705E-02  2.840E+00  3.000E+02  2.938E+02
  1.417E-02  3.819E-01  1.013E+05 -9.103E-02  2.836E+00  3.000E+02  2.938E+02
  1.417E-02  3.882E-01  1.013E+05 -8.543E-02  2.830E+00  3.000E+02  2.938E+02
  1.417E-02  3.945E-01  1.013E+05 -8.057E-02  2.823E+00  3.000E+02  2.938E+02
  1.417E-02  4.008E-01  1.013E+05 -7.606E-02  2.814E+00  3.000E+02  2.938E+02
  1.417E-02  4.072E-01  1.013E+05 -7.212E-02  2.805E+00  3.000E+02  2.938E+02
  1.417E-02  4.135E-01  1.013E+05 -6.841E-02  2.795E+00  3.000E+02  2.938E+02
  1.417E-02  4.198E-01  1.013E+05 -6.525E-02  2.785E+00  3.000E+02  2.938E+02
  1.417E-02  4.261E-01  1.013E+05 -6.225E-02  2.774E+00  3.000E+02  2.938E+02
  1.417E-02  4.324E-01  1.013E+05 -5.974E-02  2.763E+00  3.000E+02  2.938E+02
  1.417E-02  4.387E-01  1.013E+05 -5.728E-02  2.751E+00  3.000E+02  2.938E+02
  1.417E-02  4.450E-01  1.013E+05 -5.483E-02  2.739E+00  3.000E+02  2.938E+02
  1.417E-02  4.513E-01  1.013E+05 -5.244E-02  2.727E+00  3.000E+02  2.938E+02
  1.417E-02  4.577E-01  1.013E+05 -5.051E-02  2.714E+00  3.000E+02  2.938E+02
  1.417E-02  4.640E-01  1.013E+05 -4.857E-02  2.702E+00  3.000E+02  2.938E+02
  1.417E-02  4.703E-01  1.013E+05 -4.623E-02  2.689E+00  3.000E+02  2.938E+02
  1.417E-02  4.766E-01  1.013E+05 -4.433E-02  2.677E+00  3.000E+02  2.938E+02
  1.417E-02  4.829E-01  1.013E+05 -4.247E-02  2.665E+00  3.000E+02  2.938E+02
  1.417E-02  4.892E-01  1.013E+05 -4.065E-02  2.652E+00  3.000E+02  2.938E+02
  1.417E-02  4.955E-01  1.013E+05 -3.920E-02  2.642E+00  3.000E+02  2.938E+02
  1.417E-02  5.018E-01  1.013E+05 -3.736E-02  2.615E+00  3.000E+02  2.938E+02
  1.417E-02  5.050E-01  1.013E+05 -3.736E-02  2.615E+00  3.000E+02  2.938E+02
  4.252E-02  0.000E+00  1.013E+05 -4.287E-01  6.500E-02  3.000E+02  2.936E+02
  4.252E-02  3.156E-03  1.013E+05 -4.287E-01  9.733E-01  3.000E+02  2.936E+02
  4.252E-02  9.469E-03  1.013E+05 -6.021E-01  1.709E+00  3.000E+02  2.936E+02
  4.252E-02  1.578E-02  1.013E+05 -7.752E-01  2.454E+00  3.000E+02  2.936E+02
  4.252E-02  2.209E-02  1.013E+05 -9.173E-01  2.933E+00  3.000E+02  2.936E+02
  4.252E-02  2.841E-02  1.013E+05 -1.028E+00  3.200E+00  3.000E+02  2.936E+02
  4.252E-02  3.472E-02  1.013E+05 -1.114E+00  3.345E+00  3.000E+02  2.936E+02
  4.252E-02  4.103E-02  1.013E+05 -1.163E+00  3.388E+00  3.000E+02  2.937E+02
  4.252E-02  4.734E-02  1.013E+05 -1.181E+00  3.377E+00  3.000E+02  2.937E+02
  4.252E-02  5.366E-02  1.013E+05 -1.175E+00  3.340E+00  3.000E+02  2.937E+02
  4.252E-02  5.997E-02  1.013E+05 -1.151E+00  3.288E+00  3.000E+02  2.937E+02
  4.252E-02  6.628E-02  1.013E+05 -1.116E+00  3.226E+00  3.000E+02  2.937E+02
  4.252E-02  7.259E-02  1.013E+05 -1.074E+00  3.159E+00  3.000E+02  2.937E+02
  4.252E-02  7.891E-02  1.013E+05 -1.027E+00  3.092E+00  3.000E+02  2.937E+02
  4.252E-02  8.522E-02  1.013E+05 -9.783E-01  3.028E+00  3.000E+02  2.937E+02
  4.252E-02  9.153E-02  1.013E+05 -9.289E-01  2.968E+00  3.000E+02  2.937E+02
  4.252E-02  9.784E-02  1.013E+05 -8.800E-01  2.912E+00  3.000E+02  2.937E+02
  4.252E-02  1.042E-01  1.013E+05 -8.325E-01  2.860E+00  3.000E+02  2.937E+02
  4.252E-02  1.105E-01  1.013E+05 -7.867E-01  2.813E+00  3.000E+02  2.937E+02
  4.252E-02  1.168E-01  1.013E+05 -7.430E-01  2.775E+00  3.000E+02  2.937E+02
  4.252E-02  1.231E-01  1.013E+05 -7.014E-01  2.743E+00  3.000E+02  2.938E+02
  4.252E-02  1.294E-01  1.013E+05 -6.618E-01  2.719E+00  3.000E+02  2.938E+02
  4.252E-02  1.357E-01  1.013E+05 -6.246E-01  2.702E+00  3.000E+02  2.938E+02
  4.252E-02  1.420E-01  1.013E+05 -5.890E-01  2.690E+00  3.000E+02  2.938E+02
  4.252E-02  1.483E-01  1.013E+05 -5.550E-01  2.683E+00  3.000E+02  2.938E+02
  4.252E-02  1.547E-01  1.013E+05 -5.232E-01  2.684E+00  3.000E+02  2.938E+02
  4.252E-02  1.610E-01  1.013E+05 -4.934E-01  2.689E+00  3.000E+02  2.938E+02
  4.252E-02  1.673E-01  1.013E+05 -4.651E-01  2.697E+00  3.000E+02  2.938E+02
  4.252E-02  1.736E-01  1.013E+05 -4.378E-01  2.708E+00  3.000E+02  2.938E+02
  4.252E-02  1.799E-01  1.013E+05 -4.117E-01  2.722E+00  3.000E+02  2.938E+02
  4.252E-02  1.862E-01  1.013E+05 -3.868E-01  2.737E+00  3.000E+02  2.938E+02
  4.252E-02  1.925E-01  1.013E+05 -3.634E-01  2.752E+00  3.000E+02  2.938E+02
  4.252E-02  1.988E-01  1.013E+05 -3.416E-01  2.769E+00  3.000E+02  2.938E+02
  4.252E-02  2.052E-01  1.013E+05 -3.207E-01  2.788E+00  3.000E+02  2.938E+02
  4.252E-02  2.115E-01  1.013E+05 -3.008E-01  2.806E+00  3.000E+02  2.938E+02
  4.252E-02  2.178E-01  1.013E+05 -2.823E-01  2.826E+00  3.000E+02  2.938E+02
  4.252E-02  2.241E-01  1.013E+05 -2.654E-01  2.847E+00  3.000E+02  2.938E+02
  4.252E-02  2.304E-01  1.013E+05 -2.496E-01  2.868E+00  3.000E+02  2.938E+02
  4.252E-02  2.367E-01  1.013E+05 -2.339E-01  2.889E+00  3.000E+02  2.938E+02
  4.252E-02  2.430E-01  1.013E+05 -2.189E-01  2.910E+00  3.000E+02  2.938E+02
  4.252E-02  2.493E-01  1.013E+05 -2.039E-01  2.933E+00  3.000E+02  2.938E+02
  4.252E-02  2.557E-01  1.013E+05 -1.890E-01  2.956E+00  3.000E+02  2.938E+02
  4.252E-02  2.620E-01  1.013E+05 -1.739E-01  2.975E+00  3.000E+02  2.938E+02
  4.252E-02  2.683E-01  1.013E+05 -1.582E-01  2.991E+00  3.000E+02  2.938E+02
  4.252E-02  2.746E-01  1.013E+05 -1.421E-01  3.006E+00  3.000E+02  2.938E+02
  4.252E-02  2.809E-01  1.013E+05 -1.257E-01  3.019E+00  3.000E+02  2.938E+02
  4.252E-02  2.872E-01  1.013E+05 -1.090E-01  3.027E+00  3.000E+02  2.938E+02
  4.252E-02  2.935E-01  1.013E+05 -9.210E-02  3.033E+00  3.000E+02  2.938E+02
  4.252E-02  2.998E-01  1.013E+05 -7.536E-02  3.035E+00  3.000E+02  2.938E+02
  4.252E-02  3.062E-01  1.013E+05 -5.881E-02  3.033E+00  3.000E+02  2.938E+02
  4.252E-02  3.125E-01  1.013E+05 -4.302E-02  3.030E+00  3.000E+02  2.938E+02
  4.252E-02  3.188E-01  1.013E+05 -2.829E-02  3.025E+00  3.000E+02  2.938E+02
  4.252E-02  3.251E-01  1.013E+05 -1.453E-02  3.018E+00  3.000E+02  2.938E+02
  4.252E-02  3.314E-01  1.013E+05 -1.864E-03  3.009E+00  3.000E+02  2.938E+02
  4.252E-02  3.377E-01  1.013E+05  9.541E-03  3.000E+00  3.000E+02  2.938E+02
  4.252E-02  3.440E-01  1.013E+05  1.939E-02  2.990E+00  3.000E+02  2.938E+02
  4.252E-02  3.503E-01  1.013E+05  2.808E-02  2.979E+00  3.000E+02  2.938E+02
  4.252E-02  3.567E-01  1.013E+05  3.554E-02  2.968E+00  3.000E+02  2.938E+02
  4.252E-02  3.630E-01  1.013E+05  4.130E-02  2.956E+00  3.000E+02  2.938E+02
  4.252E-02  3.693E-01  1.013E+05  4.565E-02  2.944E+00  3.000E+02  2.938E+02
  4.252E-02  3.756E-01  1.013E+05  4.871E-02  2.931E+00  3.000E+02  2.938E+02
  4.252E-02  3.819E-01  1.013E+05  5.049E-02  2.919E+00  3.000E+02  2.938E+02
  4.252E-02  3.882E-01  1.013E+05  5.120E-02  2.906E+00  3.000E+02  2.938E+02
  4.252E-02  3.945E-01  1.013E+05  5.104E-02  2.893E+00  3.000E+02  2.938E+02
  4.252E-02  4.008E-01  1.013E+05  5.015E-02  2.881E+00  3.000E+02  2.938E+02
  4.252E-02  4.072E-01  1.013E+05  4.883E-02  2.868E+00  3.000E+02  2.938E+02
  4.252E-02  4.135E-01  1.013E+05  4.726E-02  2.855E+00  3.000E+02  2.938E+02
  4.252E-02  4.198E-01  1.013E+05  4.550E-02  2.842E+00  3.000E+02  2.938E+02
  4.252E-02  4.261E-01  1.013E+05  4.349E-02  2.829E+00  3.000E+02  2.938E+02
  4.252E-02  4.324E-01  1.013E+05  4.124E-02  2.817E+00  3.000E+02  2.938E+02
  4.252E-02  4.387E-01  1.013E+05  3.895E-02  2.804E+00  3.000E+02  2.938E+02
  4.252E-02  4.450E-01  1.013E+05  3.672E-02  2.792E+00  3.000E+02  2.938E+02
  4.252E-02  4.513E-01  1.013E+05  3.457E-02  2.778E+00  3.000E+02  2.938E+02
  4.252E-02  4.577E-01  1.013E+05  3.242E-02  2.765E+00  3.000E+02  2.938E+02
  4.252E-02  4.640E-01  1.013E+05  3.023E-02  2.753E+00  3.000E+02  2.938E+02
  4.252E-02  4.703E-01  1.013E+05  2.817E-02  2.740E+00  3.000E+02  2.938E+02
  4.252E-02  4.766E-01  1.013E+05  2.624E-02  2.727E+00  3.000E+02  2.938E+02
  4.252E-02  4.829E-01  1.013E+05  2.436E-02  2.715E+00  3.000E+02  2.938E+02
  4.252E-02  4.892E-01  1.013E+05  2.248E-02  2.701E+00  3.000E+02  2.938E+02
  4.252E-02  4.955E-01  1.013E+05  2.060E-02  2.693E+00  3.000E+02  2.938E+02
  4.252E-02  5.018E-01  1.013E+05  1.834E-02  2.658E+00  3.000E+02  2.938E+02
  4.252E-02  5.050E-01  1.013E+05  1.834E-02  2.658E+00  3.000E+02  2.938E+02
  7.087E-02  0.000E+00  1.013E+05 -2.605E+00  6.500E-02  3.000E+02  2.936E+02
  7.087E-02  3.156E-03  1.013E+05 -2.605E+00  1.037E+00  3.000E+02  2.936E+02
  7.087E-02  9.469E-03  1.013E+05 -2.501E+00  1.476E+00  3.000E+02  2.936E+02
  7.087E-02  1.578E-02  1.013E+05 -2.457E+00  2.058E+00  3.000E+02  2.936E+02
  7.087E-02  2.209E-02  1.013E+05 -2.437E+00  2.567E+00  3.000E+02  2.936E+02
  7.087E-02  2.841E-02  1.013E+05 -2.435E+00  2.976E+00  3.000E+02  2.936E+02
  7.087E-02  3.472E-02  1.013E+05 -2.415E+00  3.264E+00  3.000E+02  2.936E+02
  7.087E-02  4.103E-02  1.013E+05 -2.375E+00  3.468E+00  3.000E+02  2.936E+02
  7.087E-02  4.734E-02  1.013E+05 -2.322E+00  3.618E+00  3.000E+02  2.936E+02
  7.087E-02  5.366E-02  1.013E+05 -2.261E+00  3.729E+00  3.000E+02  2.936E+02
  7.087E-02  5.997E-02  1.013E+05 -2.193E+00  3.808E+00  3.000E+02  2.936E+02
  7.087E-02  6.628E-02  1.013E+05 -2.121E+00  3.862E+00  3.000E+02  2.936E+02
  7.087E-02  7.259E-02  1.013E+05 -2.046E+00  3.896E+00  3.000E+02  2.936E+02
  7.087E-02  7.891E-02  1.013E+05 -1.969E+00  3.913E+00  3.000E+02  2.936E+02
  7.087E-02  8.522E-02  1.013E+05 -1.890E+00  3.918E+00  3.000E+02  2.936E+02
  7.087E-02  9.153E-02  1.013E+05 -1.810E+00  3.912E+00  3.000E+02  2.937E+02
  7.087E-02  9.784E-02  1.013E+05 -1.730E+00  3.898E+00  3.000E+02  2.937E+02
  7.087E-02  1.042E-01  1.013E+05 -1.650E+00  3.879E+00  3.000E+02  2.937E+02
  7.087E-02  1.105E-01  1.013E+05 -1.571E+00  3.856E+00  3.000E+02  2.937E+02
  7.087E-02  1.168E-01  1.013E+05 -1.492E+00  3.830E+00  3.000E+02  2.937E+02
  7.087E-02  1.231E-01  1.013E+05 -1.413E+00  3.802E+00  3.000E+02  2.937E+02
  7.087E-02  1.294E-01  1.013E+05 -1.335E+00  3.773E+00  3.000E+02  2.937E+02
  7.087E-02  1.357E-01  1.013E+05 -1.259E+00  3.743E+00  3.000E+02  2.937E+02
  7.087E-02  1.420E-01  1.013E+05 -1.183E+00  3.714E+00  3.000E+02  2.937E+02
  7.087E-02  1.483E-01  1.013E+05 -1.109E+00  3.685E+00  3.000E+02  2.937E+02
  7.087E-02  1.547E-01  1.013E+05 -1.036E+00  3.657E+00  3.000E+02  2.937E+02
  7.087E-02  1.610E-01  1.013E+05 -9.656E-01  3.630E+00  3.000E+02  2.937E+02
  7.087E-02  1.673E-01  1.013E+05 -8.975E-01  3.604E+00  3.000E+02  2.937E+02
  7.087E-02  1.736E-01  1.013E+05 -8.312E-01  3.578E+00  3.000E+02  2.937E+02
  7.087E-02  1.799E-01  1.013E+05 -7.678E-01  3.554E+00  3.000E+02  2.937E+02
  7.087E-02  1.862E-01  1.013E+05 -7.073E-01  3.531E+00  3.000E+02  2.937E+02
  7.087E-02  1.925E-01  1.013E+05 -6.494E-01  3.506E+00  3.000E+02  2.937E+02
  7.087E-02  1.988E-01  1.013E+05 -5.945E-01  3.481E+00  3.000E+02  2.937E+02
  7.087E-02  2.052E-01  1.013E+05 -5.429E-01  3.455E+00  3.000E+02  2.937E+02
  7.087E-02  2.115E-01  1.013E+05 -4.952E-01  3.429E+00  3.000E+02  2.937E+02
  7.087E-02  2.178E-01  1.013E+05 -4.504E-01  3.400E+00  3.000E+02  2.937E+02
  7.087E-02  2.241E-01  1.013E+05 -4.089E-01  3.369E+00  3.000E+02  2.938E+02
  7.087E-02  2.304E-01  1.013E+05 -3.698E-01  3.337E+00  3.000E+02  2.938E+02
  7.087E-02  2.367E-01  1.013E+05 -3.338E-01  3.304E+00  3.000E+02  2.938E+02
  7.087E-02  2.430E-01  1.013E+05 -2.998E-01  3.269E+00  3.000E+02  2.938E+02
  7.087E-02  2.493E-01  1.013E+05 -2.681E-01  3.232E+00  3.000E+02  2.938E+02
  7.087E-02  2.557E-01  1.013E+05 -2.387E-01  3.195E+00  3.000E+02  2.938E+02
  7.087E-02  2.620E-01  1.013E+05 -2.110E-01  3.156E+00  3.000E+02  2.938E+02
  7.087E-02  2.683E-01  1.013E+05 -1.851E-01  3.118E+00  3.000E+02  2.938E+02
  7.087E-02  2.746E-01  1.013E+05 -1.606E-01  3.080E+00  3.000E+02  2.938E+02
  7.087E-02  2.809E-01  1.013E+05 -1.375E-01  3.043E+00  3.000E+02  2.938E+02
  7.087E-02  2.872E-01  1.013E+05 -1.159E-01  3.007E+00  3.000E+02  2.938E+02
  7.087E-02  2.935E-01  1.013E+05 -9.582E-02  2.973E+00  3.000E+02  2.938E+02
  7.087E-02  2.998E-01  1.013E+05 -7.732E-02  2.940E+00  3.000E+02  2.938E+02
  7.087E-02  3.062E-01  1.013E+05 -6.053E-02  2.910E+00  3.000E+02  2.938E+02
  7.087E-02  3.125E-01  1.013E+05 -4.513E-02  2.881E+00  3.000E+02  2.938E+02
  7.087E-02  3.188E-01  1.013E+05 -3.154E-02  2.854E+00  3.000E+02  2.938E+02
  7.087E-02  3.251E-01  1.013E+05 -1.961E-02  2.830E+00  3.000E+02  2.938E+02
  7.087E-02  3.314E-01  1.013E+05 -9.235E-03  2.808E+00  3.000E+02  2.938E+02
  7.087E-02  3.377E-01  1.013E+05 -4.820E-04  2.787E+00  3.000E+02  2.938E+02
  7.087E-02  3.440E-01  1.013E+05  6.949E-03  2.768E+00  3.000E+02  2.938E+02
  7.087E-02  3.503E-01  1.013E+05  1.308E-02  2.751E+00  3.000E+02  2.938E+02
  7.087E-02  3.567E-01  1.013E+05  1.824E-02  2.735E+00  3.000E+02  2.938E+02
  7.087E-02  3.630E-01  1.013E+05  2.248E-02  2.721E+00  3.000E+02  2.938E+02
  7.087E-02  3.693E-01  1.013E+05  2.611E-02  2.709E+00  3.000E+02  2.938E+02
  7.087E-02  3.756E-01  1.013E+05  2.934E-02  2.695E+00  3.000E+02  2.938E+02
  7.087E-02  3.819E-01  1.013E+05  3.206E-02  2.680E+00  3.000E+02  2.938E+02
  7.087E-02  3.882E-01  1.013E+05  3.433E-02  2.666E+00  3.000E+02  2.938E+02
  7.087E-02  3.945E-01  1.013E+05  3.623E-02  2.651E+00  3.000E+02  2.938E+02
  7.087E-02  4.008E-01  1.013E+05  3.760E-02  2.636E+00  3.000E+02  2.938E+02
  7.087E-02  4.072E-01  1.013E+05  3.855E-02  2.623E+00  3.000E+02  2.938E+02
  7.087E-02  4.135E-01  1.013E+05  3.927E-02  2.609E+00  3.000E+02  2.938E+02
  7.087E-02  4.198E-01  1.013E+05  3.976E-02  2.596E+00  3.000E+02  2.938E+02
  7.087E-02  4.261E-01  1.013E+05  4.007E-02  2.583E+00  3.000E+02  2.938E+02
  7.087E-02  4.324E-01  1.013E+05  4.022E-02  2.570E+00  3.000E+02  2.938E+02
  7.087E-02  4.387E-01  1.013E+05  4.024E-02  2.557E+00  3.000E+02  2.938E+02
  7.087E-02  4.450E-01  1.013E+05  4.014E-02  2.545E+00  3.000E+02  2.938E+02
  7.087E-02  4.513E-01  1.013E+05  4.003E-02  2.533E+00  3.000E+02  2.938E+02
  7.087E-02  4.577E-01  1.013E+05  3.993E-02  2.521E+00  3.000E+02  2.938E+02
  7.087E-02  4.640E-01  1.013E+05  3.962E-02  2.508E+00  3.000E+02  2.938E+02
  7.087E-02  4.703E-01  1.013E+05  3.921E-02  2.497E+00  3.000E+02  2.938E+02
  7.087E-02  4.766E-01  1.013E+05  3.870E-02  2.486E+00  3.000E+02  2.938E+02
  7.087E-02  4.829E-01  1.013E+05  3.812E-02  2.475E+00  3.000E+02  2.938E+02
  7.087E-02  4.892E-01  1.013E+05  3.757E-02  2.462E+00  3.000E+02  2.938E+02
  7.087E-02  4.955E-01  1.013E+05  3.687E-02  2.454E+00  3.000E+02  2.938E+02
  7.087E-02  5.018E-01  1.013E+05  3.512E-02  2.424E+00  3.000E+02  2.938E+02
  7.087E-02  5.050E-01  1.013E+05  3.512E-02  2.424E+00  3.000E+02  2.938E+02
  9.922E-02  0.000E+00  1.013E+05 -3.741E+00  6.500E-02  3.000E+02  2.938E+02
  9.922E-02  3.156E-03  1.013E+05 -3.741E+00  8.385E-01  3.000E+02  2.938E+02
  9.922E-02  9.469E-03  1.013E+05 -3.350E+00  1.243E+00  3.000E+02  2.937E+02
  9.922E-02  1.578E-02  1.013E+05 -3.072E+00  1.770E+00  3.000E+02  2.937E+02
  9.922E-02  2.209E-02  1.013E+05 -2.854E+00  2.201E+00  3.000E+02  2.937E+02
  9.922E-02  2.841E-02  1.013E+05 -2.665E+00  2.511E+00  3.000E+02  2.937E+02
  9.922E-02  3.472E-02  1.013E+05 -2.487E+00  2.727E+00  3.000E+02  2.937E+02
  9.922E-02  4.103E-02  1.013E+05 -2.326E+00  2.884E+00  3.000E+02  2.937E+02
  9.922E-02  4.734E-02  1.013E+05 -2.181E+00  3.000E+00  3.000E+02  2.937E+02
  9.922E-02  5.366E-02  1.013E+05 -2.047E+00  3.062E+00  3.000E+02  2.938E+02
  9.922E-02  5.997E-02  1.013E+05 -1.924E+00  3.087E+00  3.000E+02  2.938E+02
  9.922E-02  6.628E-02  1.013E+05 -1.810E+00  3.088E+00  3.000E+02  2.938E+02
  9.922E-02  7.259E-02  1.013E+05 -1.705E+00  3.071E+00  3.000E+02  2.938E+02
  9.922E-02  7.891E-02  1.013E+05 -1.606E+00  3.040E+00  3.000E+02  2.938E+02
  9.922E-02  8.522E-02  1.013E+05 -1.515E+00  3.000E+00  3.000E+02  2.938E+02
  9.922E-02  9.153E-02  1.013E+05 -1.429E+00  2.951E+00  3.000E+02  2.938E+02
  9.922E-02  9.784E-02  1.013E+05 -1.348E+00  2.896E+00  3.000E+02  2.938E+02
  9.922E-02  1.042E-01  1.013E+05 -1.271E+00  2.838E+00  3.000E+02  2.938E+02
  9.922E-02  1.105E-01  1.013E+05 -1.198E+00  2.776E+00  3.000E+02  2.938E+02
  9.922E-02  1.168E-01  1.013E+05 -1.128E+00  2.713E+00  3.000E+02  2.938E+02
  9.922E-02  1.231E-01  1.013E+05 -1.061E+00  2.649E+00  3.000E+02  2.938E+02
  9.922E-02  1.294E-01  1.013E+05 -9.970E-01  2.584E+00  3.000E+02  2.938E+02
  9.922E-02  1.357E-01  1.013E+05 -9.351E-01  2.520E+00  3.000E+02  2.938E+02
  9.922E-02  1.420E-01  1.013E+05 -8.759E-01  2.458E+00  3.000E+02  2.939E+02
  9.922E-02  1.483E-01  1.013E+05 -8.190E-01  2.397E+00  3.000E+02  2.939E+02
  9.922E-02  1.547E-01  1.013E+05 -7.643E-01  2.337E+00  3.000E+02  2.939E+02
  9.922E-02  1.610E-01  1.013E+05 -7.118E-01  2.278E+00  3.000E+02  2.939E+02
  9.922E-02  1.673E-01  1.013E+05 -6.613E-01  2.221E+00  3.000E+02  2.939E+02
  9.922E-02  1.736E-01  1.013E+05 -6.128E-01  2.166E+00  3.000E+02  2.939E+02
  9.922E-02  1.799E-01  1.013E+05 -5.662E-01  2.114E+00  3.000E+02  2.939E+02
  9.922E-02  1.862E-01  1.013E+05 -5.214E-01  2.063E+00  3.000E+02  2.939E+02
  9.922E-02  1.925E-01  1.013E+05 -4.784E-01  2.014E+00  3.000E+02  2.939E+02
  9.922E-02  1.988E-01  1.013E+05 -4.370E-01  1.967E+00  3.000E+02  2.939E+02
  9.922E-02  2.052E-01  1.013E+05 -3.973E-01  1.921E+00  3.000E+02  2.939E+02
  9.922E-02  2.115E-01  1.013E+05 -3.594E-01  1.877E+00  3.000E+02  2.939E+02
  9.922E-02  2.178E-01  1.013E+05 -3.230E-01  1.835E+00  3.000E+02  2.939E+02
  9.922E-02  2.241E-01  1.013E+05 -2.878E-01  1.795E+00  3.000E+02  2.939E+02
  9.922E-02  2.304E-01  1.013E+05 -2.532E-01  1.755E+00  3.000E+02  2.939E+02
  9.922E-02  2.367E-01  1.013E+05 -2.196E-01  1.717E+00  3.000E+02  2.939E+02
  9.922E-02  2.430E-01  1.013E+05 -1.873E-01  1.680E+00  3.000E+02  2.939E+02
  9.922E-02  2.493E-01  1.013E+05 -1.564E-01  1.644E+00  3.000E+02  2.939E+02
  9.922E-02  2.557E-01  1.013E+05 -1.275E-01  1.609E+00  3.000E+02  2.939E+02
  9.922E-02  2.620E-01  1.013E+05 -1.004E-01  1.575E+00  3.000E+02  2.939E+02
  9.922E-02  2.683E-01  1.013E+05 -7.553E-02  1.543E+00  3.000E+02  2.939E+02
  9.922E-02  2.746E-01  1.013E+05 -5.316E-02  1.514E+00  3.000E+02  2.939E+02
  9.922E-02  2.809E-01  1.013E+05 -3.301E-02  1.486E+00  3.000E+02  2.939E+02
  9.922E-02  2.872E-01  1.013E+05 -1.521E-02  1.461E+00  3.000E+02  2.939E+02
  9.922E-02  2.935E-01  1.013E+05  1.969E-04  1.438E+00  3.000E+02  2.939E+02
  9.922E-02  2.998E-01  1.013E+05  1.336E-02  1.416E+00  3.000E+02  2.939E+02
  9.922E-02  3.062E-01  1.013E+05  2.441E-02  1.397E+00  3.000E+02  2.939E+02
  9.922E-02  3.125E-01  1.013E+05  3.340E-02  1.380E+00  3.000E+02  2.939E+02
  9.922E-02  3.188E-01  1.013E+05  4.069E-02  1.365E+00  3.000E+02  2.939E+02
  9.922E-02  3.251E-01  1.013E+05  4.639E-02  1.349E+00  3.000E+02  2.939E+02
  9.922E-02  3.314E-01  1.013E+05  5.048E-02  1.332E+00  3.000E+02  2.939E+02
  9.922E-02  3.377E-01  1.013E+05  5.308E-02  1.313E+00  3.000E+02  2.939E+02