VARIABLES="XP","YP","P","U","V","TS","TF"
ZONE T="Zone 001"I=    82 J=    22 F=POINT
  0.000E+00  0.000E+00  1.019E+05  0.000E+00  0.000E+00  2.938E+02  2.938E+02
  0.000E+00  3.156E-03  1.019E+05  0.000E+00  0.000E+00  2.938E+02  2.938E+02
  0.000E+00  9.469E-03  1.019E+05  0.000E+00  0.000E+00  2.938E+02  2.938E+02
  0.000E+00  1.578E-02  1.019E+05  0.000E+00  0.000E+00  2.938E+02  2.938E+02
  0.000E+00  2.209E-02  1.019E+05  0.000E+00  0.000E+00  2.938E+02  2.938E+02
  0.000E+00  2.841E-02  1.019E+05  0.000E+00  0.000E+00  2.939E+02  2.939E+02
  0.000E+00  3.472E-02  1.019E+05  0.000E+00  0.000E+00  2.939E+02  2.939E+02
  0.000E+00  4.103E-02  1.019E+05  0.000E+00  0.000E+00  2.939E+02  2.939E+02
  0.000E+00  4.734E-02  1.019E+05  0.000E+00  0.000E+00  2.939E+02  2.939E+02
  0.000E+00  5.366E-02  1.018E+05  0.000E+00  0.000E+00  2.940E+02  2.940E+02
  0.000E+00  5.997E-02  1.018E+05  0.000E+00  0.000E+00  2.941E+02  2.941E+02
  0.000E+00  6.628E-02  1.018E+05  0.000E+00  0.000E+00  2.942E+02  2.942E+02
  0.000E+00  7.259E-02  1.018E+05  0.000E+00  0.000E+00  2.944E+02  2.944E+02
  0.000E+00  7.891E-02  1.018E+05  0.000E+00  0.000E+00  2.947E+02  2.947E+02
  0.000E+00  8.522E-02  1.018E+05  0.000E+00  0.000E+00  2.952E+02  2.951E+02
  0.000E+00  9.153E-02  1.018E+05  0.000E+00  0.000E+00  2.959E+02  2.959E+02
  0.000E+00  9.784E-02  1.018E+05  0.000E+00  0.000E+00  2.972E+02  2.972E+02
  0.000E+00  1.042E-01  1.018E+05  0.000E+00  0.000E+00  3.000E+02  3.000E+02
  0.000E+00  1.105E-01  1.018E+05  0.000E+00  0.000E+00  2.999E+02  2.999E+02
  0.000E+00  1.168E-01  1.018E+05  0.000E+00  0.000E+00  2.995E+02  2.995E+02
  0.000E+00  1.231E-01  1.018E+05  0.000E+00  0.000E+00  2.989E+02  2.989E+02
  0.000E+00  1.294E-01  1.018E+05  0.000E+00  0.000E+00  2.981E+02  2.981E+02
  0.000E+00  1.357E-01  1.018E+05  0.000E+00  0.000E+00  2.973E+02  2.973E+02
  0.000E+00  1.420E-01  1.017E+05  0.000E+00  0.000E+00  2.965E+02  2.965E+02
  0.000E+00  1.483E-01  1.017E+05  0.000E+00  0.000E+00  2.958E+02  2.958E+02
  0.000E+00  1.547E-01  1.017E+05  0.000E+00  0.000E+00  2.952E+02  2.952E+02
  0.000E+00  1.610E-01  1.017E+05  0.000E+00  0.000E+00  2.947E+02  2.947E+02
  0.000E+00  1.673E-01  1.017E+05  0.000E+00  0.000E+00  2.943E+02  2.944E+02
  0.000E+00  1.736E-01  1.017E+05  0.000E+00  0.000E+00  2.941E+02  2.941E+02
  0.000E+00  1.799E-01  1.017E+05  0.000E+00  0.000E+00  2.939E+02  2.939E+02
  0.000E+00  1.862E-01  1.017E+05  0.000E+00  0.000E+00  2.937E+02  2.937E+02
  0.000E+00  1.925E-01  1.017E+05  0.000E+00  0.000E+00  2.936E+02  2.936E+02
  0.000E+00  1.988E-01  1.017E+05  0.000E+00  0.000E+00  2.935E+02  2.935E+02
  0.000E+00  2.052E-01  1.017E+05  0.000E+00  0.000E+00  2.935E+02  2.935E+02
  0.000E+00  2.115E-01  1.017E+05  0.000E+00  0.000E+00  2.934E+02  2.934E+02
  0.000E+00  2.178E-01  1.017E+05  0.000E+00  0.000E+00  2.934E+02  2.934E+02
  0.000E+00  2.241E-01  1.017E+05  0.000E+00  0.000E+00  2.934E+02  2.934E+02
  0.000E+00  2.304E-01  1.016E+05  0.000E+00  0.000E+00  2.933E+02  2.933E+02
  0.000E+00  2.367E-01  1.016E+05  0.000E+00  0.000E+00  2.933E+02  2.933E+02
  0.000E+00  2.430E-01  1.016E+05  0.000E+00  0.000E+00  2.933E+02  2.933E+02
  0.000E+00  2.493E-01  1.016E+05  0.000E+00  0.000E+00  2.933E+02  2.933E+02
  0.000E+00  2.557E-01  1.016E+05  0.000E+00  0.000E+00  2.933E+02  2.933E+02
  0.000E+00  2.620E-01  1.016E+05  0.000E+00  0.000E+00  2.933E+02  2.933E+02
  0.000E+00  2.683E-01  1.016E+05  0.000E+00  0.000E+00  2.933E+02  2.933E+02
  0.000E+00  2.746E-01  1.016E+05  0.000E+00  0.000E+00  2.932E+02  2.932E+02
  0.000E+00  2.809E-01  1.016E+05  0.000E+00  0.000E+00  2.932E+02  2.932E+02
  0.000E+00  2.872E-01  1.016E+05  0.000E+00  0.000E+00  2.932E+02  2.932E+02
  0.000E+00  2.935E-01  1.016E+05  0.000E+00  0.000E+00  2.932E+02  2.932E+02
  0.000E+00  2.998E-01  1.016E+05  0.000E+00  0.000E+00  2.932E+02  2.932E+02
  0.000E+00  3.062E-01  1.016E+05  0.000E+00  0.000E+00  2.932E+02  2.932E+02
  0.000E+00  3.125E-01  1.015E+05  0.000E+00  0.000E+00  2.932E+02  2.932E+02
  0.000E+00  3.188E-01  1.015E+05  0.000E+00  0.000E+00  2.932E+02  2.932E+02
  0.000E+00  3.251E-01  1.015E+05  0.000E+00  0.000E+00  2.932E+02  2.932E+02
  0.000E+00  3.314E-01  1.015E+05  0.000E+00  0.000E+00  2.932E+02  2.932E+02
  0.000E+00  3.377E-01  1.015E+05  0.000E+00  0.000E+00  2.932E+02  2.932E+02
  0.000E+00  3.440E-01  1.015E+05  0.000E+00  0.000E+00  2.932E+02  2.932E+02
  0.000E+00  3.503E-01  1.015E+05  0.000E+00  0.000E+00  2.932E+02  2.932E+02
  0.000E+00  3.567E-01  1.015E+05  0.000E+00  0.000E+00  2.932E+02  2.932E+02
  0.000E+00  3.630E-01  1.015E+05  0.000E+00  0.000E+00  2.932E+02  2.932E+02
  0.000E+00  3.693E-01  1.015E+05  0.000E+00  0.000E+00  2.932E+02  2.932E+02
  0.000E+00  3.756E-01  1.015E+05  0.000E+00  0.000E+00  2.932E+02  2.932E+02
  0.000E+00  3.819E-01  1.015E+05  0.000E+00  0.000E+00  2.931E+02  2.931E+02
  0.000E+00  3.882E-01  1.015E+05  0.000E+00  0.000E+00  2.931E+02  2.931E+02
  0.000E+00  3.945E-01  1.015E+05  0.000E+00  0.000E+00  2.931E+02  2.931E+02
  0.000E+00  4.008E-01  1.014E+05  0.000E+00  0.000E+00  2.931E+02  2.931E+02
  0.000E+00  4.072E-01  1.014E+05  0.000E+00  0.000E+00  2.931E+02  2.931E+02
  0.000E+00  4.135E-01  1.014E+05  0.000E+00  0.000E+00  2.931E+02  2.931E+02
  0.000E+00  4.198E-01  1.014E+05  0.000E+00  0.000E+00  2.931E+02  2.931E+02
  0.000E+00  4.261E-01  1.014E+05  0.000E+00  0.000E+00  2.931E+02  2.931E+02
  0.000E+00  4.324E-01  1.014E+05  0.000E+00  0.000E+00  2.931E+02  2.931E+02
  0.000E+00  4.387E-01  1.014E+05  0.000E+00  0.000E+00  2.931E+02  2.931E+02
  0.000E+00  4.450E-01  1.014E+05  0.000E+00  0.000E+00  2.931E+02  2.931E+02
  0.000E+00  4.513E-01  1.014E+05  0.000E+00  0.000E+00  2.931E+02  2.931E+02
  0.000E+00  4.577E-01  1.014E+05  0.000E+00  0.000E+00  2.931E+02  2.931E+02
  0.000E+00  4.640E-01  1.014E+05  0.000E+00  0.000E+00  2.931E+02  2.931E+02
  0.000E+00  4.703E-01  1.014E+05  0.000E+00  0.000E+00  2.931E+02  2.931E+02
  0.000E+00  4.766E-01  1.014E+05  0.000E+00  0.000E+00  2.931E+02  2.931E+02
  0.000E+00  4.829E-01  1.014E+05  0.000E+00  0.000E+00  2.931E+02  2.931E+02
  0.000E+00  4.892E-01  1.013E+05  0.000E+00  0.000E+00  2.931E+02  2.931E+02
  0.000E+00  4.955E-01  1.013E+05  0.000E+00  0.000E+00  2.931E+02  2.931E+02
  0.000E+00  5.018E-01  1.013E+05  0.000E+00  0.000E+00  2.931E+02  2.931E+02
  0.000E+00  5.050E-01  1.013E+05  0.000E+00  0.000E+00  2.931E+02  2.931E+02
  4.000E-03  0.000E+00  1.019E+05  8.161E-07  6.500E-02  2.938E+02  2.938E+02
  4.000E-03  3.156E-03  1.019E+05  8.161E-07  6.417E-02  2.938E+02  2.938E+02
  4.000E-03  9.469E-03  1.019E+05  3.369E-07  6.448E-02  2.938E+02  2.938E+02
  4.000E-03  1.578E-02  1.019E+05  1.849E-07  6.459E-02  2.938E+02  2.938E+02
  4.000E-03  2.209E-02  1.019E+05  1.016E-07  6.461E-02  2.938E+02  2.938E+02
  4.000E-03  2.841E-02  1.019E+05  6.054E-08  6.461E-02  2.939E+02  2.939E+02
  4.000E-03  3.472E-02  1.019E+05  3.812E-08  6.461E-02  2.939E+02  2.939E+02
  4.000E-03  4.103E-02  1.019E+05  2.525E-08  6.461E-02  2.939E+02  2.939E+02
  4.000E-03  4.734E-02  1.019E+05  1.738E-08  6.461E-02  2.939E+02  2.939E+02
  4.000E-03  5.366E-02  1.018E+05  1.231E-08  6.461E-02  2.940E+02  2.940E+02
  4.000E-03  5.997E-02  1.018E+05  8.925E-09  6.461E-02  2.941E+02  2.941E+02
  4.000E-03  6.628E-02  1.018E+05  6.622E-09  6.461E-02  2.942E+02  2.942E+02
  4.000E-03  7.259E-02  1.018E+05  4.969E-09  6.461E-02  2.944E+02  2.944E+02
  4.000E-03  7.891E-02  1.018E+05  3.743E-09  6.461E-02  2.947E+02  2.947E+02
  4.000E-03  8.522E-02  1.018E+05  2.833E-09  6.461E-02  2.952E+02  2.951E+02
  4.000E-03  9.153E-02  1.018E+05  2.171E-09  6.461E-02  2.959E+02  2.959E+02
  4.000E-03  9.784E-02  1.018E+05  1.676E-09  6.461E-02  2.972E+02  2.972E+02
  4.000E-03  1.042E-01  1.018E+05  1.296E-09  6.461E-02  3.000E+02  3.000E+02
  4.000E-03  1.105E-01  1.018E+05  9.887E-10  6.461E-02  2.999E+02  2.999E+02
  4.000E-03  1.168E-01  1.018E+05  7.553E-10  6.461E-02  2.995E+02  2.995E+02
  4.000E-03  1.231E-01  1.018E+05  6.001E-10  6.460E-02  2.989E+02  2.989E+02
  4.000E-03  1.294E-01  1.018E+05  4.836E-10  6.461E-02  2.981E+02  2.981E+02
  4.000E-03  1.357E-01  1.018E+05  3.744E-10  6.461E-02  2.973E+02  2.973E+02
  4.000E-03  1.420E-01  1.017E+05  2.945E-10  6.461E-02  2.965E+02  2.965E+02
  4.000E-03  1.483E-01  1.017E+05  2.301E-10  6.461E-02  2.958E+02  2.958E+02
  4.000E-03  1.547E-01  1.017E+05  1.539E-10  6.461E-02  2.952E+02  2.952E+02
  4.000E-03  1.610E-01  1.017E+05  9.311E-11  6.461E-02  2.947E+02  2.947E+02
  4.000E-03  1.673E-01  1.017E+05  7.383E-11  6.461E-02  2.943E+02  2.944E+02
  4.000E-03  1.736E-01  1.017E+05  9.788E-11  6.461E-02  2.941E+02  2.941E+02
  4.000E-03  1.799E-01  1.017E+05  1.095E-10  6.461E-02  2.939E+02  2.939E+02
  4.000E-03  1.862E-01  1.017E+05  8.300E-11  6.461E-02  2.937E+02  2.937E+02
  4.000E-03  1.925E-01  1.017E+05  3.138E-11  6.461E-02  2.936E+02  2.936E+02
  4.000E-03  1.988E-01  1.017E+05 -1.136E-11  6.461E-02  2.935E+02  2.935E+02
  4.000E-03  2.052E-01  1.017E+05 -2.283E-11  6.461E-02  2.935E+02  2.935E+02
  4.000E-03  2.115E-01  1.017E+05 -4.499E-12  6.461E-02  2.934E+02  2.934E+02
  4.000E-03  2.178E-01  1.017E+05  8.309E-12  6.461E-02  2.934E+02  2.934E+02
  4.000E-03  2.241E-01  1.017E+05  1.889E-11  6.461E-02  2.934E+02  2.934E+02
  4.000E-03  2.304E-01  1.016E+05  5.026E-11  6.460E-02  2.933E+02  2.933E+02
  4.000E-03  2.367E-01  1.016E+05  3.197E-11  6.461E-02  2.933E+02  2.933E+02
  4.000E-03  2.430E-01  1.016E+05 -9.745E-12  6.461E-02  2.933E+02  2.933E+02
  4.000E-03  2.493E-01  1.016E+05 -5.635E-12  6.461E-02  2.933E+02  2.933E+02
  4.000E-03  2.557E-01  1.016E+05 -1.770E-12  6.461E-02  2.933E+02  2.933E+02
  4.000E-03  2.620E-01  1.016E+05  8.414E-13  6.461E-02  2.933E+02  2.933E+02
  4.000E-03  2.683E-01  1.016E+05  6.406E-12  6.461E-02  2.933E+02  2.933E+02
  4.000E-03  2.746E-01  1.016E+05  7.038E-12  6.461E-02  2.932E+02  2.932E+02
  4.000E-03  2.809E-01  1.016E+05  8.095E-12  6.461E-02  2.932E+02  2.932E+02
  4.000E-03  2.872E-01  1.016E+05  5.046E-12  6.461E-02  2.932E+02  2.932E+02
  4.000E-03  2.935E-01  1.016E+05  2.895E-12  6.461E-02  2.932E+02  2.932E+02
  4.000E-03  2.998E-01  1.016E+05 -3.179E-12  6.461E-02  2.932E+02  2.932E+02
  4.000E-03  3.062E-01  1.016E+05 -5.901E-12  6.461E-02  2.932E+02  2.932E+02
  4.000E-03  3.125E-01  1.015E+05 -1.965E-11  6.461E-02  2.932E+02  2.932E+02
  4.000E-03  3.188E-01  1.015E+05 -2.904E-11  6.461E-02  2.932E+02  2.932E+02
  4.000E-03  3.251E-01  1.015E+05 -7.527E-12  6.460E-02  2.932E+02  2.932E+02
  4.000E-03  3.314E-01  1.015E+05  1.470E-11  6.461E-02  2.932E+02  2.932E+02
  4.000E-03  3.377E-01  1.015E+05  1.923E-12  6.461E-02  2.932E+02  2.932E+02
  4.000E-03  3.440E-01  1.015E+05 -8.750E-12  6.461E-02  2.932E+02  2.932E+02
  4.000E-03  3.503E-01  1.015E+05 -2.897E-11  6.461E-02  2.932E+02  2.932E+02
  4.000E-03  3.567E-01  1.015E+05 -2.544E-11  6.461E-02  2.932E+02  2.932E+02
  4.000E-03  3.630E-01  1.015E+05  3.602E-11  6.461E-02  2.932E+02  2.932E+02
  4.000E-03  3.693E-01  1.015E+05  4.317E-11  6.461E-02  2.932E+02  2.932E+02
  4.000E-03  3.756E-01  1.015E+05  1.847E-11  6.461E-02  2.932E+02  2.932E+02
  4.000E-03  3.819E-01  1.015E+05  1.072E-11  6.461E-02  2.931E+02  2.931E+02
  4.000E-03  3.882E-01  1.015E+05  8.981E-12  6.461E-02  2.931E+02  2.931E+02
  4.000E-03  3.945E-01  1.015E+05  5.418E-12  6.461E-02  2.931E+02  2.931E+02
  4.000E-03  4.008E-01  1.014E+05  5.611E-12  6.461E-02  2.931E+02  2.931E+02
  4.000E-03  4.072E-01  1.014E+05  2.469E-12  6.461E-02  2.931E+02  2.931E+02
  4.000E-03  4.135E-01  1.014E+05 -3.566E-12  6.461E-02  2.931E+02  2.931E+02
  4.000E-03  4.198E-01  1.014E+05 -1.741E-11  6.461E-02  2.931E+02  2.931E+02
  4.000E-03  4.261E-01  1.014E+05 -1.918E-11  6.461E-02  2.931E+02  2.931E+02
  4.000E-03  4.324E-01  1.014E+05  4.661E-12  6.460E-02  2.931E+02  2.931E+02
  4.000E-03  4.387E-01  1.014E+05  2.834E-11  6.461E-02  2.931E+02  2.931E+02
  4.000E-03  4.450E-01  1.014E+05  2.639E-11  6.461E-02  2.931E+02  2.931E+02
  4.000E-03  4.513E-01  1.014E+05  2.291E-11  6.461E-02  2.931E+02  2.931E+02
  4.000E-03  4.577E-01  1.014E+05  3.003E-11  6.461E-02  2.931E+02  2.931E+02
  4.000E-03  4.640E-01  1.014E+05  4.222E-11  6.461E-02  2.931E+02  2.931E+02
  4.000E-03  4.703E-01  1.014E+05  7.096E-11  6.461E-02  2.931E+02  2.931E+02
  4.000E-03  4.766E-01  1.014E+05  1.218E-10  6.461E-02  2.931E+02  2.931E+02
  4.000E-03  4.829E-01  1.014E+05  2.333E-10  6.461E-02  2.931E+02  2.931E+02
  4.000E-03  4.892E-01  1.013E+05  4.193E-10  6.466E-02  2.931E+02  2.931E+02
  4.000E-03  4.955E-01  1.013E+05  5.605E-10  6.480E-02  2.931E+02  2.931E+02
  4.000E-03  5.018E-01  1.013E+05  4.687E-10  6.500E-02  2.931E+02  2.931E+02
  4.000E-03  5.050E-01  1.013E+05  4.687E-10  6.500E-02  2.931E+02  2.931E+02
  1.200E-02  0.000E+00  1.019E+05  1.155E-06  6.500E-02  2.938E+02  2.938E+02
  1.200E-02  3.156E-03  1.019E+05  1.155E-06  6.418E-02  2.938E+02  2.938E+02
  1.200E-02  9.469E-03  1.019E+05  5.789E-07  6.449E-02  2.938E+02  2.938E+02
  1.200E-02  1.578E-02  1.019E+05  3.561E-07  6.459E-02  2.938E+02  2.938E+02
  1.200E-02  2.209E-02  1.019E+05  2.195E-07  6.461E-02  2.938E+02  2.938E+02
  1.200E-02  2.841E-02  1.019E+05  1.423E-07  6.462E-02  2.938E+02  2.938E+02
  1.200E-02  3.472E-02  1.019E+05  9.553E-08  6.462E-02  2.939E+02  2.939E+02
  1.200E-02  4.103E-02  1.019E+05  6.617E-08  6.462E-02  2.939E+02  2.939E+02
  1.200E-02  4.734E-02  1.019E+05  4.701E-08  6.462E-02  2.939E+02  2.939E+02
  1.200E-02  5.366E-02  1.018E+05  3.404E-08  6.462E-02  2.940E+02  2.940E+02
  1.200E-02  5.997E-02  1.018E+05  2.508E-08  6.462E-02  2.940E+02  2.940E+02
  1.200E-02  6.628E-02  1.018E+05  1.871E-08  6.462E-02  2.942E+02  2.942E+02
  1.200E-02  7.259E-02  1.018E+05  1.407E-08  6.462E-02  2.944E+02  2.944E+02
  1.200E-02  7.891E-02  1.018E+05  1.066E-08  6.462E-02  2.947E+02  2.947E+02
  1.200E-02  8.522E-02  1.018E+05  8.152E-09  6.462E-02  2.951E+02  2.951E+02
  1.200E-02  9.153E-02  1.018E+05  6.290E-09  6.462E-02  2.959E+02  2.959E+02
  1.200E-02  9.784E-02  1.018E+05  4.868E-09  6.462E-02  2.972E+02  2.972E+02
  1.200E-02  1.042E-01  1.018E+05  3.731E-09  6.462E-02  3.000E+02  3.000E+02
  1.200E-02  1.105E-01  1.018E+05  2.833E-09  6.462E-02  2.999E+02  2.999E+02
  1.200E-02  1.168E-01  1.018E+05  2.194E-09  6.461E-02  2.995E+02  2.995E+02
  1.200E-02  1.231E-01  1.018E+05  1.724E-09  6.461E-02  2.989E+02  2.989E+02
  1.200E-02  1.294E-01  1.018E+05  1.358E-09  6.461E-02  2.981E+02  2.981E+02
  1.200E-02  1.357E-01  1.018E+05  1.044E-09  6.462E-02  2.972E+02  2.973E+02
  1.200E-02  1.420E-01  1.017E+05  7.801E-10  6.462E-02  2.965E+02  2.965E+02
  1.200E-02  1.483E-01  1.017E+05  5.755E-10  6.462E-02  2.958E+02  2.958E+02
  1.200E-02  1.547E-01  1.017E+05  4.460E-10  6.462E-02  2.952E+02  2.952E+02
  1.200E-02  1.610E-01  1.017E+05  4.008E-10  6.462E-02  2.947E+02  2.947E+02
  1.200E-02  1.673E-01  1.017E+05  3.867E-10  6.462E-02  2.943E+02  2.944E+02
  1.200E-02  1.736E-01  1.017E+05  3.242E-10  6.462E-02  2.941E+02  2.941E+02
  1.200E-02  1.799E-01  1.017E+05  1.787E-10  6.462E-02  2.939E+02  2.939E+02
  1.200E-02  1.862E-01  1.017E+05  3.074E-11  6.462E-02  2.937E+02  2.937E+02
  1.200E-02  1.925E-01  1.017E+05 -2.737E-11  6.462E-02  2.936E+02  2.936E+02
  1.200E-02  1.988E-01  1.017E+05 -8.869E-12  6.462E-02  2.935E+02  2.935E+02
  1.200E-02  2.052E-01  1.017E+05  8.976E-11  6.462E-02  2.935E+02  2.935E+02
  1.200E-02  2.115E-01  1.017E+05  1.545E-10  6.462E-02  2.934E+02  2.934E+02
  1.200E-02  2.178E-01  1.017E+05  9.817E-11  6.462E-02  2.934E+02  2.934E+02
  1.200E-02  2.241E-01  1.017E+05  4.011E-11  6.461E-02  2.934E+02  2.934E+02
  1.200E-02  2.304E-01  1.016E+05  2.112E-11  6.461E-02  2.933E+02  2.933E+02
  1.200E-02  2.367E-01  1.016E+05  2.598E-11  6.461E-02  2.933E+02  2.933E+02
  1.200E-02  2.430E-01  1.016E+05  2.743E-11  6.462E-02  2.933E+02  2.933E+02
  1.200E-02  2.493E-01  1.016E+05  2.770E-11  6.462E-02  2.933E+02  2.933E+02
  1.200E-02  2.557E-01  1.016E+05  3.423E-11  6.462E-02  2.933E+02  2.933E+02
  1.200E-02  2.620E-01  1.016E+05  3.250E-11  6.462E-02  2.933E+02  2.933E+02
  1.200E-02  2.683E-01  1.016E+05  2.608E-11  6.462E-02  2.933E+02  2.933E+02
  1.200E-02  2.746E-01  1.016E+05  1.809E-11  6.462E-02  2.933E+02  2.933E+02
  1.200E-02  2.809E-01  1.016E+05  1.246E-11  6.462E-02  2.932E+02  2.932E+02
  1.200E-02  2.872E-01  1.016E+05  2.467E-12  6.462E-02  2.932E+02  2.932E+02
  1.200E-02  2.935E-01  1.016E+05 -5.377E-12  6.462E-02  2.932E+02  2.932E+02
  1.200E-02  2.998E-01  1.016E+05 -1.161E-11  6.462E-02  2.932E+02  2.932E+02
  1.200E-02  3.062E-01  1.016E+05 -1.256E-11  6.462E-02  2.932E+02  2.932E+02
  1.200E-02  3.125E-01  1.015E+05 -2.594E-11  6.462E-02  2.932E+02  2.932E+02
  1.200E-02  3.188E-01  1.015E+05 -3.478E-11  6.461E-02  2.932E+02  2.932E+02
  1.200E-02  3.251E-01  1.015E+05 -8.083E-12  6.461E-02  2.932E+02  2.932E+02
  1.200E-02  3.314E-01  1.015E+05  1.114E-11  6.461E-02  2.932E+02  2.932E+02
  1.200E-02  3.377E-01  1.015E+05 -2.433E-11  6.462E-02  2.932E+02  2.932E+02
  1.200E-02  3.440E-01  1.015E+05 -8.327E-12  6.462E-02  2.932E+02  2.932E+02
  1.200E-02  3.503E-01  1.015E+05  9.692E-13  6.462E-02  2.932E+02  2.932E+02
  1.200E-02  3.567E-01  1.015E+05 -1.091E-11  6.462E-02  2.932E+02  2.932E+02
  1.200E-02  3.630E-01  1.015E+05  5.630E-11  6.462E-02  2.932E+02  2.932E+02
  1.200E-02  3.693E-01  1.015E+05  6.622E-11  6.462E-02  2.932E+02  2.932E+02
  1.200E-02  3.756E-01  1.015E+05  3.872E-11  6.462E-02  2.932E+02  2.932E+02
  1.200E-02  3.819E-01  1.015E+05  2.654E-11  6.462E-02  2.931E+02  2.931E+02
  1.200E-02  3.882E-01  1.015E+05  1.885E-11  6.462E-02  2.931E+02  2.931E+02
  1.200E-02  3.945E-01  1.015E+05  1.274E-11  6.462E-02  2.931E+02  2.931E+02
  1.200E-02  4.008E-01  1.014E+05  1.183E-11  6.462E-02  2.931E+02  2.931E+02
  1.200E-02  4.072E-01  1.014E+05  8.802E-12  6.462E-02  2.931E+02  2.931E+02
  1.200E-02  4.135E-01  1.014E+05  3.265E-12  6.462E-02  2.931E+02  2.931E+02
  1.200E-02  4.198E-01  1.014E+05 -1.297E-11  6.462E-02  2.931E+02  2.931E+02
  1.200E-02  4.261E-01  1.014E+05 -1.818E-11  6.461E-02  2.931E+02  2.931E+02
  1.200E-02  4.324E-01  1.014E+05  8.858E-12  6.461E-02  2.931E+02  2.931E+02
  1.200E-02  4.387E-01  1.014E+05  3.272E-11  6.461E-02  2.931E+02  2.931E+02
  1.200E-02  4.450E-01  1.014E+05  3.448E-11  6.462E-02  2.931E+02  2.931E+02
  1.200E-02  4.513E-01  1.014E+05  3.525E-11  6.462E-02  2.931E+02  2.931E+02
  1.200E-02  4.577E-01  1.014E+05  5.423E-11  6.462E-02  2.931E+02  2.931E+02
  1.200E-02  4.640E-01  1.014E+05  8.624E-11  6.462E-02  2.931E+02  2.931E+02
  1.200E-02  4.703E-01  1.014E+05  1.391E-10  6.462E-02  2.931E+02  2.931E+02
  1.200E-02  4.766E-01  1.014E+05  2.271E-10  6.462E-02  2.931E+02  2.931E+02
  1.200E-02  4.829E-01  1.014E+05  3.893E-10  6.462E-02  2.931E+02  2.931E+02
  1.200E-02  4.892E-01  1.013E+05  6.274E-10  6.467E-02  2.931E+02  2.931E+02
  1.200E-02  4.955E-01  1.013E+05  7.643E-10  6.480E-02  2.931E+02  2.931E+02
  1.200E-02  5.018E-01  1.013E+05  6.639E-10  6.500E-02  2.931E+02  2.931E+02
  1.200E-02  5.050E-01  1.013E+05  6.639E-10  6.500E-02  2.931E+02  2.931E+02
  2.000E-02  0.000E+00  1.019E+05  5.859E-07  6.500E-02  2.938E+02  2.938E+02
  2.000E-02  3.156E-03  1.019E+05  5.859E-07  6.417E-02  2.938E+02  2.938E+02
  2.000E-02  9.469E-03  1.019E+05  4.410E-07  6.448E-02  2.938E+02  2.938E+02
  2.000E-02  1.578E-02  1.019E+05  3.261E-07  6.459E-02  2.938E+02  2.938E+02
  2.000E-02  2.209E-02  1.019E+05  2.346E-07  6.461E-02  2.938E+02  2.938E+02
  2.000E-02  2.841E-02  1.019E+05  1.689E-07  6.462E-02  2.938E+02  2.938E+02
  2.000E-02  3.472E-02  1.019E+05  1.223E-07  6.462E-02  2.938E+02  2.938E+02
  2.000E-02  4.103E-02  1.019E+05  8.937E-08  6.462E-02  2.939E+02  2.939E+02
  2.000E-02  4.734E-02  1.019E+05  6.598E-08  6.462E-02  2.939E+02  2.939E+02
  2.000E-02  5.366E-02  1.018E+05  4.918E-08  6.462E-02  2.940E+02  2.939E+02
  2.000E-02  5.997E-02  1.018E+05  3.692E-08  6.462E-02  2.940E+02  2.940E+02
  2.000E-02  6.628E-02  1.018E+05  2.788E-08  6.462E-02  2.942E+02  2.942E+02
  2.000E-02  7.259E-02  1.018E+05  2.118E-08  6.462E-02  2.944E+02  2.944E+02
  2.000E-02  7.891E-02  1.018E+05  1.619E-08  6.462E-02  2.947E+02  2.947E+02
  2.000E-02  8.522E-02  1.018E+05  1.245E-08  6.462E-02  2.951E+02  2.951E+02
  2.000E-02  9.153E-02  1.018E+05  9.636E-09  6.462E-02  2.959E+02  2.959E+02
  2.000E-02  9.784E-02  1.018E+05  7.443E-09  6.462E-02  2.972E+02  2.972E+02
  2.000E-02  1.042E-01  1.018E+05  5.725E-09  6.462E-02  3.000E+02  3.000E+02
  2.000E-02  1.105E-01  1.018E+05  4.366E-09  6.462E-02  2.999E+02  2.999E+02
  2.000E-02  1.168E-01  1.018E+05  3.365E-09  6.461E-02  2.995E+02  2.995E+02
  2.000E-02  1.231E-01  1.018E+05  2.646E-09  6.461E-02  2.989E+02  2.989E+02
  2.000E-02  1.294E-01  1.018E+05  2.066E-09  6.461E-02  2.981E+02  2.981E+02
  2.000E-02  1.357E-01  1.018E+05  1.614E-09  6.462E-02  2.972E+02  2.973E+02
  2.000E-02  1.420E-01  1.017E+05  1.272E-09  6.462E-02  2.965E+02  2.965E+02
  2.000E-02  1.483E-01  1.017E+05  1.003E-09  6.462E-02  2.958E+02  2.958E+02
  2.000E-02  1.547E-01  1.017E+05  7.769E-10  6.462E-02  2.952E+02  2.952E+02
  2.000E-02  1.610E-01  1.017E+05  5.827E-10  6.462E-02  2.947E+02  2.947E+02
  2.000E-02  1.673E-01  1.017E+05  4.431E-10  6.462E-02  2.943E+02  2.943E+02
  2.000E-02  1.736E-01  1.017E+05  3.546E-10  6.462E-02  2.941E+02  2.941E+02
  2.000E-02  1.799E-01  1.017E+05  2.829E-10  6.462E-02  2.939E+02  2.939E+02
  2.000E-02  1.862E-01  1.017E+05  2.077E-10  6.462E-02  2.937E+02  2.937E+02
  2.000E-02  1.925E-01  1.017E+05  1.393E-10  6.462E-02  2.936E+02  2.936E+02
  2.000E-02  1.988E-01  1.017E+05  7.888E-11  6.462E-02  2.935E+02  2.935E+02
  2.000E-02  2.052E-01  1.017E+05  9.161E-11  6.462E-02  2.935E+02  2.935E+02
  2.000E-02  2.115E-01  1.017E+05  1.186E-10  6.462E-02  2.934E+02  2.934E+02
  2.000E-02  2.178E-01  1.017E+05  8.751E-11  6.462E-02  2.934E+02  2.934E+02
  2.000E-02  2.241E-01  1.017E+05  6.255E-11  6.461E-02  2.934E+02  2.934E+02
  2.000E-02  2.304E-01  1.016E+05  2.708E-11  6.461E-02  2.933E+02  2.933E+02
  2.000E-02  2.367E-01  1.016E+05  3.723E-11  6.461E-02  2.933E+02  2.933E+02
  2.000E-02  2.430E-01  1.016E+05  4.892E-11  6.462E-02  2.933E+02  2.933E+02
  2.000E-02  2.493E-01  1.016E+05  2.013E-11  6.462E-02  2.933E+02  2.933E+02
  2.000E-02  2.557E-01  1.016E+05  1.088E-11  6.462E-02  2.933E+02  2.933E+02
  2.000E-02  2.620E-01  1.016E+05  6.920E-12  6.462E-02  2.933E+02  2.933E+02
  2.000E-02  2.683E-01  1.016E+05  6.687E-12  6.462E-02  2.933E+02  2.933E+02
  2.000E-02  2.746E-01  1.016E+05  7.168E-12  6.462E-02  2.933E+02  2.933E+02
  2.000E-02  2.809E-01  1.016E+05  7.401E-12  6.462E-02  2.932E+02  2.932E+02
  2.000E-02  2.872E-01  1.016E+05  4.835E-12  6.462E-02  2.932E+02  2.932E+02
  2.000E-02  2.935E-01  1.016E+05  1.209E-12  6.462E-02  2.932E+02  2.932E+02
  2.000E-02  2.998E-01  1.016E+05 -4.497E-12  6.462E-02  2.932E+02  2.932E+02
  2.000E-02  3.062E-01  1.016E+05 -7.785E-12  6.462E-02  2.932E+02  2.932E+02
  2.000E-02  3.125E-01  1.015E+05 -1.263E-11  6.462E-02  2.932E+02  2.932E+02
  2.000E-02  3.188E-01  1.015E+05 -1.644E-11  6.461E-02  2.932E+02  2.932E+02
  2.000E-02  3.251E-01  1.015E+05 -1.169E-11  6.461E-02  2.932E+02  2.932E+02
  2.000E-02  3.314E-01  1.015E+05 -1.367E-11  6.461E-02  2.932E+02  2.932E+02
  2.000E-02  3.377E-01  1.015E+05 -4.096E-11  6.462E-02  2.932E+02  2.932E+02
  2.000E-02  3.440E-01  1.015E+05 -5.022E-12  6.462E-02  2.932E+02  2.932E+02
  2.000E-02  3.503E-01  1.015E+05  3.112E-11  6.462E-02  2.932E+02  2.932E+02
  2.000E-02  3.567E-01  1.015E+05  1.542E-11  6.462E-02  2.932E+02  2.932E+02
  2.000E-02  3.630E-01  1.015E+05  2.807E-11  6.462E-02  2.932E+02  2.932E+02
  2.000E-02  3.693E-01  1.015E+05  2.975E-11  6.462E-02  2.932E+02  2.932E+02
  2.000E-02  3.756E-01  1.015E+05  2.253E-11  6.462E-02  2.932E+02  2.932E+02
  2.000E-02  3.819E-01  1.015E+05  1.471E-11  6.462E-02  2.932E+02  2.932E+02
  2.000E-02  3.882E-01  1.015E+05  7.896E-12  6.462E-02  2.931E+02  2.931E+02
  2.000E-02  3.945E-01  1.015E+05  4.239E-12  6.462E-02  2.931E+02  2.931E+02
  2.000E-02  4.008E-01  1.014E+05  5.446E-12  6.462E-02  2.931E+02  2.931E+02
  2.000E-02  4.072E-01  1.014E+05  5.388E-12  6.462E-02  2.931E+02  2.931E+02
  2.000E-02  4.135E-01  1.014E+05  7.727E-12  6.462E-02  2.931E+02  2.931E+02
  2.000E-02  4.198E-01  1.014E+05  9.950E-12  6.462E-02  2.931E+02  2.931E+02
  2.000E-02  4.261E-01  1.014E+05  1.432E-11  6.461E-02  2.931E+02  2.931E+02
  2.000E-02  4.324E-01  1.014E+05  2.955E-11  6.461E-02  2.931E+02  2.931E+02
  2.000E-02  4.387E-01  1.014E+05  4.096E-11  6.461E-02  2.931E+02  2.931E+02
  2.000E-02  4.450E-01  1.014E+05  4.794E-11  6.462E-02  2.931E+02  2.931E+02
  2.000E-02  4.513E-01  1.014E+05  5.858E-11  6.462E-02  2.931E+02  2.931E+02
  2.000E-02  4.577E-01  1.014E+05  7.280E-11  6.462E-02  2.931E+02  2.931E+02
  2.000E-02  4.640E-01  1.014E+05  9.191E-11  6.462E-02  2.931E+02  2.931E+02
  2.000E-02  4.703E-01  1.014E+05  1.255E-10  6.462E-02  2.931E+02  2.931E+02
  2.000E-02  4.766E-01  1.014E+05  1.797E-10  6.462E-02  2.931E+02  2.931E+02
  2.000E-02  4.829E-01  1.014E+05  2.524E-10  6.462E-02  2.931E+02  2.931E+02
  2.000E-02  4.892E-01  1.013E+05  3.283E-10  6.467E-02  2.931E+02  2.931E+02
  2.000E-02  4.955E-01  1.013E+05  3.277E-10  6.480E-02  2.931E+02  2.931E+02
  2.000E-02  5.018E-01  1.013E+05  3.059E-10  6.500E-02  2.931E+02  2.931E+02
  2.000E-02  5.050E-01  1.013E+05  3.059E-10  6.500E-02  2.931E+02  2.931E+02
  2.800E-02  0.000E+00  1.019E+05  4.159E-07  6.500E-02  2.938E+02  2.938E+02
  2.800E-02  3.156E-03  1.019E+05  4.159E-07  6.417E-02  2.938E+02  2.938E+02
  2.800E-02  9.469E-03  1.019E+05  3.492E-07  6.448E-02  2.938E+02  2.938E+02
  2.800E-02  1.578E-02  1.019E+05  2.811E-07  6.459E-02  2.938E+02  2.938E+02
  2.800E-02  2.209E-02  1.019E+05  2.188E-07  6.461E-02  2.938E+02  2.938E+02
  2.800E-02  2.841E-02  1.019E+05  1.680E-07  6.462E-02  2.938E+02  2.938E+02
  2.800E-02  3.472E-02  1.019E+05  1.281E-07  6.462E-02  2.938E+02  2.938E+02
  2.800E-02  4.103E-02  1.019E+05  9.756E-08  6.462E-02  2.938E+02  2.938E+02
  2.800E-02  4.734E-02  1.019E+05  7.432E-08  6.462E-02  2.939E+02  2.939E+02
  2.800E-02  5.366E-02  1.018E+05  5.680E-08  6.462E-02  2.939E+02  2.939E+02
  2.800E-02  5.997E-02  1.018E+05  4.350E-08  6.462E-02  2.940E+02  2.940E+02
  2.800E-02  6.628E-02  1.018E+05  3.333E-08  6.462E-02  2.941E+02  2.941E+02
  2.800E-02  7.259E-02  1.018E+05  2.562E-08  6.462E-02  2.944E+02  2.943E+02
  2.800E-02  7.891E-02  1.018E+05  1.977E-08  6.462E-02  2.947E+02  2.946E+02
  2.800E-02  8.522E-02  1.018E+05  1.529E-08  6.462E-02  2.951E+02  2.951E+02
  2.800E-02  9.153E-02  1.018E+05  1.187E-08  6.462E-02  2.959E+02  2.958E+02
  2.800E-02  9.784E-02  1.018E+05  9.178E-09  6.462E-02  2.972E+02  2.972E+02
  2.800E-02  1.042E-01  1.018E+05  7.118E-09  6.462E-02  3.000E+02  3.000E+02
  2.800E-02  1.105E-01  1.018E+05  5.504E-09  6.462E-02  2.999E+02  2.999E+02
  2.800E-02  1.168E-01  1.018E+05  4.264E-09  6.461E-02  2.995E+02  2.995E+02
  2.800E-02  1.231E-01  1.018E+05  3.377E-09  6.461E-02  2.988E+02  2.989E+02
  2.800E-02  1.294E-01  1.018E+05  2.660E-09  6.461E-02  2.981E+02  2.981E+02
  2.800E-02  1.357E-01  1.018E+05  2.087E-09  6.462E-02  2.972E+02  2.973E+02
  2.800E-02  1.420E-01  1.017E+05  1.592E-09  6.462E-02  2.964E+02  2.965E+02
  2.800E-02  1.483E-01  1.017E+05  1.209E-09  6.462E-02  2.957E+02  2.958E+02
  2.800E-02  1.547E-01  1.017E+05  9.484E-10  6.462E-02  2.952E+02  2.952E+02
  2.800E-02  1.610E-01  1.017E+05  7.176E-10  6.462E-02  2.947E+02  2.947E+02
  2.800E-02  1.673E-01  1.017E+05  5.399E-10  6.462E-02  2.943E+02  2.943E+02
  2.800E-02  1.736E-01  1.017E+05  4.235E-10  6.462E-02  2.940E+02  2.941E+02
  2.800E-02  1.799E-01  1.017E+05  3.464E-10  6.462E-02  2.938E+02  2.939E+02
  2.800E-02  1.862E-01  1.017E+05  2.878E-10  6.462E-02  2.937E+02  2.937E+02
  2.800E-02  1.925E-01  1.017E+05  2.347E-10  6.462E-02  2.936E+02  2.936E+02
  2.800E-02  1.988E-01  1.017E+05  2.099E-10  6.462E-02  2.935E+02  2.935E+02
  2.800E-02  2.052E-01  1.017E+05  1.391E-10  6.462E-02  2.935E+02  2.935E+02
  2.800E-02  2.115E-01  1.017E+05  7.846E-11  6.462E-02  2.934E+02  2.934E+02
  2.800E-02  2.178E-01  1.017E+05  7.356E-11  6.462E-02  2.934E+02  2.934E+02
  2.800E-02  2.241E-01  1.017E+05  5.107E-11  6.461E-02  2.934E+02  2.934E+02
  2.800E-02  2.304E-01  1.016E+05  3.320E-11  6.461E-02  2.933E+02  2.933E+02
  2.800E-02  2.367E-01  1.016E+05  2.467E-11  6.461E-02  2.933E+02  2.933E+02
  2.800E-02  2.430E-01  1.016E+05  1.789E-11  6.462E-02  2.933E+02  2.933E+02
  2.800E-02  2.493E-01  1.016E+05  1.199E-11  6.462E-02  2.933E+02  2.933E+02
  2.800E-02  2.557E-01  1.016E+05  1.107E-11  6.462E-02  2.933E+02  2.933E+02
  2.800E-02  2.620E-01  1.016E+05  1.079E-11  6.462E-02  2.933E+02  2.933E+02
  2.800E-02  2.683E-01  1.016E+05  1.211E-11  6.462E-02  2.933E+02  2.933E+02
  2.800E-02  2.746E-01  1.016E+05  1.095E-11  6.462E-02  2.933E+02  2.933E+02
  2.800E-02  2.809E-01  1.016E+05  9.241E-12  6.462E-02  2.933E+02  2.933E+02
  2.800E-02  2.872E-01  1.016E+05  3.643E-12  6.462E-02  2.932E+02  2.933E+02
  2.800E-02  2.935E-01  1.016E+05  1.182E-12  6.462E-02  2.932E+02  2.932E+02
  2.800E-02  2.998E-01  1.016E+05 -4.527E-12  6.462E-02  2.932E+02  2.932E+02
  2.800E-02  3.062E-01  1.016E+05 -8.442E-12  6.462E-02  2.932E+02  2.932E+02
  2.800E-02  3.125E-01  1.015E+05 -1.070E-11  6.462E-02  2.932E+02  2.932E+02
  2.800E-02  3.188E-01  1.015E+05 -1.321E-11  6.461E-02  2.932E+02  2.932E+02
  2.800E-02  3.251E-01  1.015E+05 -1.052E-11  6.461E-02  2.932E+02  2.932E+02
  2.800E-02  3.314E-01  1.015E+05 -9.350E-12  6.461E-02  2.932E+02  2.932E+02
  2.800E-02  3.377E-01  1.015E+05 -1.340E-11  6.462E-02  2.932E+02  2.932E+02