VARIABLES="XP","YP","P","U","V","TS","TF"
ZONE T="Zone 001"I=    82 J=    22 F=POINT
  0.000E+00  0.000E+00  1.019E+05  0.000E+00  0.000E+00  7.574E-01  7.574E-01
  0.000E+00  3.156E-03  1.019E+05  0.000E+00  0.000E+00  7.574E-01  7.574E-01
  0.000E+00  9.469E-03  1.019E+05  0.000E+00  0.000E+00  7.574E-01  7.574E-01
  0.000E+00  1.578E-02  1.019E+05  0.000E+00  0.000E+00  7.574E-01  7.574E-01
  0.000E+00  2.209E-02  1.019E+05  0.000E+00  0.000E+00  7.574E-01  7.574E-01
  0.000E+00  2.841E-02  1.019E+05  0.000E+00  0.000E+00  7.574E-01  7.574E-01
  0.000E+00  3.472E-02  1.019E+05  0.000E+00  0.000E+00  7.574E-01  7.574E-01
  0.000E+00  4.103E-02  1.019E+05  0.000E+00  0.000E+00  7.574E-01  7.574E-01
  0.000E+00  4.734E-02  1.019E+05  0.000E+00  0.000E+00  7.574E-01  7.574E-01
  0.000E+00  5.366E-02  1.019E+05  0.000E+00  0.000E+00  7.574E-01  7.574E-01
  0.000E+00  5.997E-02  1.018E+05  0.000E+00  0.000E+00  7.574E-01  7.574E-01
  0.000E+00  6.628E-02  1.018E+05  0.000E+00  0.000E+00  7.574E-01  7.574E-01
  0.000E+00  7.259E-02  1.018E+05  0.000E+00  0.000E+00  7.574E-01  7.574E-01
  0.000E+00  7.891E-02  1.018E+05  0.000E+00  0.000E+00  7.574E-01  7.574E-01
  0.000E+00  8.522E-02  1.018E+05  0.000E+00  0.000E+00  7.574E-01  7.574E-01
  0.000E+00  9.153E-02  1.018E+05  0.000E+00  0.000E+00  7.574E-01  7.574E-01
  0.000E+00  9.784E-02  1.018E+05  0.000E+00  0.000E+00  7.574E-01  7.574E-01
  0.000E+00  1.042E-01  1.018E+05  0.000E+00  0.000E+00  7.574E-01  7.574E-01
  0.000E+00  1.105E-01  1.018E+05  0.000E+00  0.000E+00  7.574E-01  7.574E-01
  0.000E+00  1.168E-01  1.018E+05  0.000E+00  0.000E+00  7.574E-01  7.574E-01
  0.000E+00  1.231E-01  1.018E+05  0.000E+00  0.000E+00  7.574E-01  7.574E-01
  0.000E+00  1.294E-01  1.018E+05  0.000E+00  0.000E+00  7.574E-01  7.574E-01
  0.000E+00  1.357E-01  1.018E+05  0.000E+00  0.000E+00  7.574E-01  7.574E-01
  0.000E+00  1.420E-01  1.017E+05  0.000E+00  0.000E+00  7.574E-01  7.574E-01
  0.000E+00  1.483E-01  1.017E+05  0.000E+00  0.000E+00  7.575E-01  7.574E-01
  0.000E+00  1.547E-01  1.017E+05  0.000E+00  0.000E+00  7.575E-01  7.575E-01
  0.000E+00  1.610E-01  1.017E+05  0.000E+00  0.000E+00  7.575E-01  7.575E-01
  0.000E+00  1.673E-01  1.017E+05  0.000E+00  0.000E+00  7.576E-01  7.576E-01
  0.000E+00  1.736E-01  1.017E+05  0.000E+00  0.000E+00  7.577E-01  7.577E-01
  0.000E+00  1.799E-01  1.017E+05  0.000E+00  0.000E+00  7.579E-01  7.579E-01
  0.000E+00  1.862E-01  1.017E+05  0.000E+00  0.000E+00  7.581E-01  7.581E-01
  0.000E+00  1.925E-01  1.017E+05  0.000E+00  0.000E+00  7.584E-01  7.584E-01
  0.000E+00  1.988E-01  1.017E+05  0.000E+00  0.000E+00  7.588E-01  7.588E-01
  0.000E+00  2.052E-01  1.017E+05  0.000E+00  0.000E+00  7.593E-01  7.593E-01
  0.000E+00  2.115E-01  1.017E+05  0.000E+00  0.000E+00  7.601E-01  7.600E-01
  0.000E+00  2.178E-01  1.017E+05  0.000E+00  0.000E+00  7.610E-01  7.610E-01
  0.000E+00  2.241E-01  1.017E+05  0.000E+00  0.000E+00  7.623E-01  7.622E-01
  0.000E+00  2.304E-01  1.016E+05  0.000E+00  0.000E+00  7.639E-01  7.639E-01
  0.000E+00  2.367E-01  1.016E+05  0.000E+00  0.000E+00  7.661E-01  7.660E-01
  0.000E+00  2.430E-01  1.016E+05  0.000E+00  0.000E+00  7.688E-01  7.687E-01
  0.000E+00  2.493E-01  1.016E+05  0.000E+00  0.000E+00  7.723E-01  7.721E-01
  0.000E+00  2.557E-01  1.016E+05  0.000E+00  0.000E+00  7.767E-01  7.765E-01
  0.000E+00  2.620E-01  1.016E+05  0.000E+00  0.000E+00  7.822E-01  7.819E-01
  0.000E+00  2.683E-01  1.016E+05  0.000E+00  0.000E+00  7.890E-01  7.886E-01
  0.000E+00  2.746E-01  1.016E+05  0.000E+00  0.000E+00  7.973E-01  7.969E-01
  0.000E+00  2.809E-01  1.016E+05  0.000E+00  0.000E+00  8.075E-01  8.070E-01
  0.000E+00  2.872E-01  1.016E+05  0.000E+00  0.000E+00  8.197E-01  8.192E-01
  0.000E+00  2.935E-01  1.016E+05  0.000E+00  0.000E+00  8.344E-01  8.337E-01
  0.000E+00  2.998E-01  1.016E+05  0.000E+00  0.000E+00  8.518E-01  8.510E-01
  0.000E+00  3.062E-01  1.016E+05  0.000E+00  0.000E+00  8.723E-01  8.713E-01
  0.000E+00  3.125E-01  1.015E+05  0.000E+00  0.000E+00  8.961E-01  8.950E-01
  0.000E+00  3.188E-01  1.015E+05  0.000E+00  0.000E+00  9.237E-01  9.224E-01
  0.000E+00  3.251E-01  1.015E+05  0.000E+00  0.000E+00  9.553E-01  9.538E-01
  0.000E+00  3.314E-01  1.015E+05  0.000E+00  0.000E+00  9.911E-01  9.895E-01
  0.000E+00  3.377E-01  1.015E+05  0.000E+00  0.000E+00  1.032E+00  1.030E+00
  0.000E+00  3.440E-01  1.015E+05  0.000E+00  0.000E+00  1.077E+00  1.074E+00
  0.000E+00  3.503E-01  1.015E+05  0.000E+00  0.000E+00  1.126E+00  1.124E+00
  0.000E+00  3.567E-01  1.015E+05  0.000E+00  0.000E+00  1.181E+00  1.178E+00
  0.000E+00  3.630E-01  1.015E+05  0.000E+00  0.000E+00  1.240E+00  1.237E+00
  0.000E+00  3.693E-01  1.015E+05  0.000E+00  0.000E+00  1.304E+00  1.301E+00
  0.000E+00  3.756E-01  1.015E+05  0.000E+00  0.000E+00  1.371E+00  1.368E+00
  0.000E+00  3.819E-01  1.015E+05  0.000E+00  0.000E+00  1.443E+00  1.440E+00
  0.000E+00  3.882E-01  1.015E+05  0.000E+00  0.000E+00  1.517E+00  1.514E+00
  0.000E+00  3.945E-01  1.015E+05  0.000E+00  0.000E+00  1.594E+00  1.591E+00
  0.000E+00  4.008E-01  1.014E+05  0.000E+00  0.000E+00  1.673E+00  1.669E+00
  0.000E+00  4.072E-01  1.014E+05  0.000E+00  0.000E+00  1.752E+00  1.749E+00
  0.000E+00  4.135E-01  1.014E+05  0.000E+00  0.000E+00  1.832E+00  1.828E+00
  0.000E+00  4.198E-01  1.014E+05  0.000E+00  0.000E+00  1.910E+00  1.906E+00
  0.000E+00  4.261E-01  1.014E+05  0.000E+00  0.000E+00  1.985E+00  1.981E+00
  0.000E+00  4.324E-01  1.014E+05  0.000E+00  0.000E+00  2.057E+00  2.054E+00
  0.000E+00  4.387E-01  1.014E+05  0.000E+00  0.000E+00  2.125E+00  2.121E+00
  0.000E+00  4.450E-01  1.014E+05  0.000E+00  0.000E+00  2.186E+00  2.184E+00
  0.000E+00  4.513E-01  1.014E+05  0.000E+00  0.000E+00  2.242E+00  2.239E+00
  0.000E+00  4.577E-01  1.014E+05  0.000E+00  0.000E+00  2.289E+00  2.287E+00
  0.000E+00  4.640E-01  1.014E+05  0.000E+00  0.000E+00  2.329E+00  2.327E+00
  0.000E+00  4.703E-01  1.014E+05  0.000E+00  0.000E+00  2.359E+00  2.358E+00
  0.000E+00  4.766E-01  1.014E+05  0.000E+00  0.000E+00  2.380E+00  2.379E+00
  0.000E+00  4.829E-01  1.014E+05  0.000E+00  0.000E+00  2.392E+00  2.392E+00
  0.000E+00  4.892E-01  1.013E+05  0.000E+00  0.000E+00  2.396E+00  2.395E+00
  0.000E+00  4.955E-01  1.013E+05  0.000E+00  0.000E+00  2.393E+00  2.393E+00
  0.000E+00  5.018E-01  1.013E+05  0.000E+00  0.000E+00  2.388E+00  2.388E+00
  0.000E+00  5.050E-01  1.013E+05  0.000E+00  0.000E+00  2.388E+00  2.388E+00
  4.000E-03  0.000E+00  1.019E+05  8.159E-07  6.500E-02  7.574E-01  7.574E-01
  4.000E-03  3.156E-03  1.019E+05  8.159E-07  6.498E-02  7.574E-01  7.574E-01
  4.000E-03  9.469E-03  1.019E+05  3.451E-07  6.499E-02  7.574E-01  7.574E-01
  4.000E-03  1.578E-02  1.019E+05  2.431E-07  6.500E-02  7.574E-01  7.574E-01
  4.000E-03  2.209E-02  1.019E+05  2.384E-07  6.499E-02  7.574E-01  7.574E-01
  4.000E-03  2.841E-02  1.019E+05  7.592E-07  6.499E-02  7.574E-01  7.574E-01
  4.000E-03  3.472E-02  1.019E+05  1.433E-06  6.500E-02  7.574E-01  7.574E-01
  4.000E-03  4.103E-02  1.019E+05  7.270E-07  6.500E-02  7.574E-01  7.574E-01
  4.000E-03  4.734E-02  1.019E+05  1.560E-07  6.500E-02  7.574E-01  7.574E-01
  4.000E-03  5.366E-02  1.019E+05  7.211E-08  6.499E-02  7.574E-01  7.574E-01
  4.000E-03  5.997E-02  1.018E+05  1.917E-08  6.499E-02  7.574E-01  7.574E-01
  4.000E-03  6.628E-02  1.018E+05  6.982E-09  6.499E-02  7.574E-01  7.574E-01
  4.000E-03  7.259E-02  1.018E+05  2.514E-09  6.499E-02  7.574E-01  7.574E-01
  4.000E-03  7.891E-02  1.018E+05  1.411E-09  6.499E-02  7.574E-01  7.574E-01
  4.000E-03  8.522E-02  1.018E+05  1.049E-09  6.499E-02  7.574E-01  7.574E-01
  4.000E-03  9.153E-02  1.018E+05  9.285E-10  6.500E-02  7.574E-01  7.574E-01
  4.000E-03  9.784E-02  1.018E+05  8.523E-10  6.500E-02  7.574E-01  7.574E-01
  4.000E-03  1.042E-01  1.018E+05  7.076E-10  6.500E-02  7.574E-01  7.574E-01
  4.000E-03  1.105E-01  1.018E+05  5.969E-10  6.499E-02  7.574E-01  7.574E-01
  4.000E-03  1.168E-01  1.018E+05  5.125E-10  6.499E-02  7.574E-01  7.574E-01
  4.000E-03  1.231E-01  1.018E+05  3.848E-10  6.499E-02  7.574E-01  7.574E-01
  4.000E-03  1.294E-01  1.018E+05  3.207E-10  6.499E-02  7.574E-01  7.574E-01
  4.000E-03  1.357E-01  1.018E+05  3.256E-10  6.499E-02  7.574E-01  7.574E-01
  4.000E-03  1.420E-01  1.017E+05  2.827E-10  6.499E-02  7.574E-01  7.574E-01
  4.000E-03  1.483E-01  1.017E+05  2.074E-10  6.499E-02  7.575E-01  7.574E-01
  4.000E-03  1.547E-01  1.017E+05  1.563E-10  6.499E-02  7.575E-01  7.575E-01
  4.000E-03  1.610E-01  1.017E+05  1.213E-10  6.500E-02  7.575E-01  7.575E-01
  4.000E-03  1.673E-01  1.017E+05  7.170E-11  6.500E-02  7.576E-01  7.576E-01
  4.000E-03  1.736E-01  1.017E+05  2.520E-11  6.500E-02  7.577E-01  7.577E-01
  4.000E-03  1.799E-01  1.017E+05 -1.033E-11  6.499E-02  7.579E-01  7.579E-01
  4.000E-03  1.862E-01  1.017E+05  1.447E-11  6.499E-02  7.581E-01  7.581E-01
  4.000E-03  1.925E-01  1.017E+05  4.648E-11  6.499E-02  7.584E-01  7.584E-01
  4.000E-03  1.988E-01  1.017E+05  2.650E-11  6.499E-02  7.588E-01  7.588E-01
  4.000E-03  2.052E-01  1.017E+05  5.595E-12  6.499E-02  7.593E-01  7.593E-01
  4.000E-03  2.115E-01  1.017E+05  2.498E-11  6.499E-02  7.601E-01  7.600E-01
  4.000E-03  2.178E-01  1.017E+05  4.386E-11  6.499E-02  7.610E-01  7.610E-01
  4.000E-03  2.241E-01  1.017E+05  4.777E-13  6.499E-02  7.623E-01  7.622E-01
  4.000E-03  2.304E-01  1.016E+05  3.083E-11  6.500E-02  7.639E-01  7.639E-01
  4.000E-03  2.367E-01  1.016E+05  3.694E-11  6.500E-02  7.661E-01  7.660E-01
  4.000E-03  2.430E-01  1.016E+05 -1.296E-11  6.500E-02  7.688E-01  7.687E-01
  4.000E-03  2.493E-01  1.016E+05 -4.303E-11  6.499E-02  7.723E-01  7.721E-01
  4.000E-03  2.557E-01  1.016E+05 -1.856E-11  6.499E-02  7.767E-01  7.765E-01
  4.000E-03  2.620E-01  1.016E+05  1.252E-11  6.499E-02  7.822E-01  7.819E-01
  4.000E-03  2.683E-01  1.016E+05 -3.638E-12  6.499E-02  7.890E-01  7.886E-01
  4.000E-03  2.746E-01  1.016E+05  8.705E-13  6.499E-02  7.973E-01  7.969E-01
  4.000E-03  2.809E-01  1.016E+05 -1.302E-11  6.499E-02  8.075E-01  8.070E-01
  4.000E-03  2.872E-01  1.016E+05  4.002E-13  6.500E-02  8.197E-01  8.192E-01
  4.000E-03  2.935E-01  1.016E+05  3.121E-11  6.500E-02  8.344E-01  8.337E-01
  4.000E-03  2.998E-01  1.016E+05  8.568E-12  6.500E-02  8.518E-01  8.510E-01
  4.000E-03  3.062E-01  1.016E+05 -3.499E-11  6.499E-02  8.723E-01  8.713E-01
  4.000E-03  3.125E-01  1.015E+05 -2.565E-12  6.499E-02  8.961E-01  8.950E-01
  4.000E-03  3.188E-01  1.015E+05  2.687E-11  6.499E-02  9.237E-01  9.224E-01
  4.000E-03  3.251E-01  1.015E+05 -3.570E-12  6.499E-02  9.553E-01  9.538E-01
  4.000E-03  3.314E-01  1.015E+05 -3.177E-11  6.499E-02  9.911E-01  9.895E-01
  4.000E-03  3.377E-01  1.015E+05 -8.239E-12  6.499E-02  1.032E+00  1.030E+00
  4.000E-03  3.440E-01  1.015E+05  1.982E-11  6.499E-02  1.077E+00  1.074E+00
  4.000E-03  3.503E-01  1.015E+05 -1.872E-11  6.499E-02  1.126E+00  1.124E+00
  4.000E-03  3.567E-01  1.015E+05 -6.284E-12  6.500E-02  1.181E+00  1.178E+00
  4.000E-03  3.630E-01  1.015E+05  2.759E-11  6.500E-02  1.240E+00  1.237E+00
  4.000E-03  3.693E-01  1.015E+05  1.239E-11  6.500E-02  1.304E+00  1.301E+00
  4.000E-03  3.756E-01  1.015E+05 -2.913E-11  6.499E-02  1.371E+00  1.368E+00
  4.000E-03  3.819E-01  1.015E+05 -1.505E-12  6.499E-02  1.443E+00  1.440E+00
  4.000E-03  3.882E-01  1.015E+05  3.040E-11  6.499E-02  1.517E+00  1.514E+00
  4.000E-03  3.945E-01  1.015E+05  5.474E-12  6.499E-02  1.594E+00  1.591E+00
  4.000E-03  4.008E-01  1.014E+05 -2.233E-11  6.499E-02  1.673E+00  1.669E+00
  4.000E-03  4.072E-01  1.014E+05 -5.496E-12  6.499E-02  1.752E+00  1.749E+00
  4.000E-03  4.135E-01  1.014E+05  1.640E-11  6.499E-02  1.832E+00  1.828E+00
  4.000E-03  4.198E-01  1.014E+05 -2.157E-11  6.499E-02  1.910E+00  1.906E+00
  4.000E-03  4.261E-01  1.014E+05  1.608E-11  6.500E-02  1.985E+00  1.981E+00
  4.000E-03  4.324E-01  1.014E+05  1.274E-11  6.500E-02  2.057E+00  2.054E+00
  4.000E-03  4.387E-01  1.014E+05 -5.578E-12  6.500E-02  2.125E+00  2.121E+00
  4.000E-03  4.450E-01  1.014E+05 -8.861E-12  6.499E-02  2.186E+00  2.184E+00
  4.000E-03  4.513E-01  1.014E+05 -6.550E-12  6.499E-02  2.242E+00  2.239E+00
  4.000E-03  4.577E-01  1.014E+05  1.718E-11  6.499E-02  2.289E+00  2.287E+00
  4.000E-03  4.640E-01  1.014E+05 -1.906E-12  6.499E-02  2.329E+00  2.327E+00
  4.000E-03  4.703E-01  1.014E+05  6.692E-12  6.499E-02  2.359E+00  2.358E+00
  4.000E-03  4.766E-01  1.014E+05  1.154E-11  6.499E-02  2.380E+00  2.379E+00
  4.000E-03  4.829E-01  1.014E+05  9.733E-12  6.499E-02  2.392E+00  2.392E+00
  4.000E-03  4.892E-01  1.013E+05 -6.621E-12  6.499E-02  2.396E+00  2.395E+00
  4.000E-03  4.955E-01  1.013E+05 -2.149E-11  6.499E-02  2.393E+00  2.393E+00
  4.000E-03  5.018E-01  1.013E+05 -3.523E-11  6.500E-02  2.388E+00  2.388E+00
  4.000E-03  5.050E-01  1.013E+05 -3.523E-11  6.500E-02  2.388E+00  2.388E+00
  1.200E-02  0.000E+00  1.019E+05  1.109E-06  6.500E-02  7.568E-01  7.568E-01
  1.200E-02  3.156E-03  1.019E+05  1.109E-06  6.498E-02  7.568E-01  7.568E-01
  1.200E-02  9.469E-03  1.019E+05  4.972E-07  6.500E-02  7.568E-01  7.568E-01
  1.200E-02  1.578E-02  1.019E+05  2.964E-07  6.500E-02  7.568E-01  7.568E-01
  1.200E-02  2.209E-02  1.019E+05 -4.991E-07  6.500E-02  7.568E-01  7.568E-01
  1.200E-02  2.841E-02  1.019E+05  2.598E-06  6.500E-02  7.568E-01  7.568E-01
  1.200E-02  3.472E-02  1.019E+05  8.146E-06  6.500E-02  7.568E-01  7.568E-01
  1.200E-02  4.103E-02  1.019E+05  2.552E-06  6.501E-02  7.568E-01  7.568E-01
  1.200E-02  4.734E-02  1.019E+05 -6.636E-07  6.500E-02  7.568E-01  7.568E-01
  1.200E-02  5.366E-02  1.019E+05 -2.332E-08  6.500E-02  7.568E-01  7.568E-01
  1.200E-02  5.997E-02  1.018E+05 -4.738E-08  6.500E-02  7.568E-01  7.568E-01
  1.200E-02  6.628E-02  1.018E+05 -1.260E-08  6.500E-02  7.568E-01  7.568E-01
  1.200E-02  7.259E-02  1.018E+05 -4.107E-09  6.500E-02  7.568E-01  7.568E-01
  1.200E-02  7.891E-02  1.018E+05  4.823E-10  6.500E-02  7.568E-01  7.568E-01
  1.200E-02  8.522E-02  1.018E+05  2.027E-09  6.500E-02  7.568E-01  7.568E-01
  1.200E-02  9.153E-02  1.018E+05  2.477E-09  6.500E-02  7.568E-01  7.568E-01
  1.200E-02  9.784E-02  1.018E+05  2.465E-09  6.501E-02  7.568E-01  7.568E-01
  1.200E-02  1.042E-01  1.018E+05  2.209E-09  6.500E-02  7.568E-01  7.568E-01
  1.200E-02  1.105E-01  1.018E+05  1.897E-09  6.500E-02  7.568E-01  7.568E-01
  1.200E-02  1.168E-01  1.018E+05  1.605E-09  6.500E-02  7.568E-01  7.568E-01
  1.200E-02  1.231E-01  1.018E+05  1.315E-09  6.500E-02  7.568E-01  7.568E-01
  1.200E-02  1.294E-01  1.018E+05  1.086E-09  6.500E-02  7.568E-01  7.568E-01
  1.200E-02  1.357E-01  1.018E+05  9.087E-10  6.500E-02  7.568E-01  7.568E-01
  1.200E-02  1.420E-01  1.017E+05  6.848E-10  6.500E-02  7.568E-01  7.568E-01
  1.200E-02  1.483E-01  1.017E+05  4.494E-10  6.500E-02  7.568E-01  7.568E-01
  1.200E-02  1.547E-01  1.017E+05  2.916E-10  6.500E-02  7.569E-01  7.569E-01
  1.200E-02  1.610E-01  1.017E+05  1.990E-10  6.500E-02  7.569E-01  7.569E-01
  1.200E-02  1.673E-01  1.017E+05  1.301E-10  6.501E-02  7.570E-01  7.570E-01
  1.200E-02  1.736E-01  1.017E+05  9.936E-11  6.500E-02  7.571E-01  7.571E-01
  1.200E-02  1.799E-01  1.017E+05  1.041E-10  6.500E-02  7.573E-01  7.573E-01
  1.200E-02  1.862E-01  1.017E+05  1.686E-10  6.500E-02  7.575E-01  7.575E-01
  1.200E-02  1.925E-01  1.017E+05  1.985E-10  6.500E-02  7.578E-01  7.578E-01
  1.200E-02  1.988E-01  1.017E+05  1.438E-10  6.500E-02  7.582E-01  7.582E-01
  1.200E-02  2.052E-01  1.017E+05  7.399E-11  6.500E-02  7.587E-01  7.587E-01
  1.200E-02  2.115E-01  1.017E+05  6.720E-11  6.500E-02  7.594E-01  7.594E-01
  1.200E-02  2.178E-01  1.017E+05  7.014E-11  6.500E-02  7.604E-01  7.604E-01
  1.200E-02  2.241E-01  1.017E+05  8.127E-12  6.500E-02  7.617E-01  7.616E-01
  1.200E-02  2.304E-01  1.016E+05  1.272E-11  6.500E-02  7.633E-01  7.632E-01
  1.200E-02  2.367E-01  1.016E+05 -2.061E-11  6.501E-02  7.655E-01  7.654E-01
  1.200E-02  2.430E-01  1.016E+05 -9.978E-11  6.500E-02  7.682E-01  7.681E-01
  1.200E-02  2.493E-01  1.016E+05 -1.120E-10  6.500E-02  7.717E-01  7.715E-01
  1.200E-02  2.557E-01  1.016E+05 -2.427E-11  6.500E-02  7.761E-01  7.759E-01
  1.200E-02  2.620E-01  1.016E+05  6.628E-11  6.500E-02  7.816E-01  7.813E-01
  1.200E-02  2.683E-01  1.016E+05  7.918E-11  6.500E-02  7.884E-01  7.880E-01
  1.200E-02  2.746E-01  1.016E+05  6.644E-11  6.500E-02  7.967E-01  7.963E-01
  1.200E-02  2.809E-01  1.016E+05  1.172E-11  6.500E-02  8.069E-01  8.064E-01
  1.200E-02  2.872E-01  1.016E+05 -1.134E-11  6.500E-02  8.191E-01  8.186E-01
  1.200E-02  2.935E-01  1.016E+05  2.949E-12  6.501E-02  8.338E-01  8.331E-01
  1.200E-02  2.998E-01  1.016E+05 -2.576E-11  6.500E-02  8.512E-01  8.504E-01
  1.200E-02  3.062E-01  1.016E+05 -7.333E-11  6.500E-02  8.717E-01  8.707E-01
  1.200E-02  3.125E-01  1.015E+05 -3.797E-11  6.500E-02  8.955E-01  8.944E-01
  1.200E-02  3.188E-01  1.015E+05 -3.517E-12  6.500E-02  9.231E-01  9.218E-01
  1.200E-02  3.251E-01  1.015E+05 -1.186E-11  6.500E-02  9.547E-01  9.532E-01
  1.200E-02  3.314E-01  1.015E+05 -1.780E-11  6.500E-02  9.906E-01  9.889E-01
  1.200E-02  3.377E-01  1.015E+05  3.013E-11  6.500E-02  1.031E+00  1.029E+00
  1.200E-02  3.440E-01  1.015E+05  6.323E-11  6.500E-02  1.076E+00  1.074E+00
  1.200E-02  3.503E-01  1.015E+05  1.011E-11  6.500E-02  1.126E+00  1.123E+00
  1.200E-02  3.567E-01  1.015E+05  1.104E-12  6.500E-02  1.180E+00  1.178E+00
  1.200E-02  3.630E-01  1.015E+05  1.656E-11  6.501E-02  1.240E+00  1.237E+00
  1.200E-02  3.693E-01  1.015E+05 -9.026E-12  6.500E-02  1.303E+00  1.300E+00
  1.200E-02  3.756E-01  1.015E+05 -4.859E-11  6.500E-02  1.371E+00  1.368E+00
  1.200E-02  3.819E-01  1.015E+05 -1.103E-11  6.500E-02  1.442E+00  1.439E+00
  1.200E-02  3.882E-01  1.015E+05  1.304E-11  6.500E-02  1.517E+00  1.514E+00
  1.200E-02  3.945E-01  1.015E+05 -1.974E-11  6.500E-02  1.594E+00  1.590E+00
  1.200E-02  4.008E-01  1.014E+05 -4.200E-11  6.500E-02  1.673E+00  1.669E+00
  1.200E-02  4.072E-01  1.014E+05  1.540E-11  6.500E-02  1.752E+00  1.748E+00
  1.200E-02  4.135E-01  1.014E+05  7.926E-11  6.500E-02  1.831E+00  1.828E+00
  1.200E-02  4.198E-01  1.014E+05  5.546E-11  6.500E-02  1.909E+00  1.906E+00
  1.200E-02  4.261E-01  1.014E+05  6.934E-11  6.500E-02  1.985E+00  1.981E+00
  1.200E-02  4.324E-01  1.014E+05  2.560E-12  6.501E-02  2.057E+00  2.053E+00
  1.200E-02  4.387E-01  1.014E+05 -7.490E-11  6.500E-02  2.124E+00  2.121E+00
  1.200E-02  4.450E-01  1.014E+05 -8.631E-11  6.500E-02  2.186E+00  2.183E+00
  1.200E-02  4.513E-01  1.014E+05 -3.900E-11  6.500E-02  2.242E+00  2.239E+00
  1.200E-02  4.577E-01  1.014E+05  4.203E-11  6.500E-02  2.289E+00  2.287E+00
  1.200E-02  4.640E-01  1.014E+05  5.883E-11  6.500E-02  2.329E+00  2.327E+00
  1.200E-02  4.703E-01  1.014E+05  5.597E-11  6.500E-02  2.359E+00  2.358E+00
  1.200E-02  4.766E-01  1.014E+05  1.743E-11  6.500E-02  2.380E+00  2.379E+00
  1.200E-02  4.829E-01  1.014E+05 -3.770E-11  6.500E-02  2.392E+00  2.392E+00
  1.200E-02  4.892E-01  1.013E+05 -8.381E-11  6.500E-02  2.396E+00  2.396E+00
  1.200E-02  4.955E-01  1.013E+05 -1.121E-10  6.500E-02  2.393E+00  2.393E+00
  1.200E-02  5.018E-01  1.013E+05 -1.248E-10  6.500E-02  2.388E+00  2.388E+00
  1.200E-02  5.050E-01  1.013E+05 -1.248E-10  6.500E-02  2.388E+00  2.388E+00
  2.000E-02  0.000E+00  1.019E+05  5.386E-07  6.500E-02  7.555E-01  7.555E-01
  2.000E-02  3.156E-03  1.019E+05  5.386E-07  6.498E-02  7.555E-01  7.555E-01
  2.000E-02  9.469E-03  1.019E+05  3.616E-07  6.500E-02  7.555E-01  7.555E-01
  2.000E-02  1.578E-02  1.019E+05  2.741E-07  6.500E-02  7.555E-01  7.555E-01
  2.000E-02  2.209E-02  1.019E+05 -4.735E-07  6.500E-02  7.555E-01  7.555E-01
  2.000E-02  2.841E-02  1.019E+05  2.660E-06  6.501E-02  7.555E-01  7.555E-01
  2.000E-02  3.472E-02  1.019E+05  8.158E-06  6.500E-02  7.555E-01  7.555E-01
  2.000E-02  4.103E-02  1.019E+05  2.610E-06  6.500E-02  7.555E-01  7.555E-01
  2.000E-02  4.734E-02  1.019E+05 -6.335E-07  6.500E-02  7.555E-01  7.555E-01
  2.000E-02  5.366E-02  1.019E+05 -5.826E-11  6.500E-02  7.555E-01  7.555E-01
  2.000E-02  5.997E-02  1.018E+05 -3.267E-08  6.500E-02  7.555E-01  7.555E-01
  2.000E-02  6.628E-02  1.018E+05 -2.601E-09  6.500E-02  7.555E-01  7.555E-01
  2.000E-02  7.259E-02  1.018E+05  2.684E-09  6.500E-02  7.555E-01  7.555E-01
  2.000E-02  7.891E-02  1.018E+05  5.293E-09  6.500E-02  7.555E-01  7.555E-01
  2.000E-02  8.522E-02  1.018E+05  5.617E-09  6.500E-02  7.555E-01  7.555E-01
  2.000E-02  9.153E-02  1.018E+05  5.192E-09  6.500E-02  7.555E-01  7.555E-01
  2.000E-02  9.784E-02  1.018E+05  4.475E-09  6.501E-02  7.555E-01  7.555E-01
  2.000E-02  1.042E-01  1.018E+05  3.749E-09  6.500E-02  7.555E-01  7.555E-01
  2.000E-02  1.105E-01  1.018E+05  3.100E-09  6.500E-02  7.555E-01  7.555E-01
  2.000E-02  1.168E-01  1.018E+05  2.519E-09  6.500E-02  7.555E-01  7.555E-01
  2.000E-02  1.231E-01  1.018E+05  2.049E-09  6.500E-02  7.555E-01  7.555E-01
  2.000E-02  1.294E-01  1.018E+05  1.648E-09  6.500E-02  7.555E-01  7.555E-01
  2.000E-02  1.357E-01  1.018E+05  1.248E-09  6.500E-02  7.556E-01  7.556E-01
  2.000E-02  1.420E-01  1.017E+05  9.035E-10  6.500E-02  7.556E-01  7.556E-01
  2.000E-02  1.483E-01  1.017E+05  6.546E-10  6.500E-02  7.556E-01  7.556E-01
  2.000E-02  1.547E-01  1.017E+05  4.672E-10  6.500E-02  7.556E-01  7.556E-01
  2.000E-02  1.610E-01  1.017E+05  3.547E-10  6.500E-02  7.557E-01  7.557E-01
  2.000E-02  1.673E-01  1.017E+05  3.034E-10  6.501E-02  7.558E-01  7.558E-01
  2.000E-02  1.736E-01  1.017E+05  2.866E-10  6.500E-02  7.559E-01  7.559E-01
  2.000E-02  1.799E-01  1.017E+05  2.751E-10  6.500E-02  7.560E-01  7.560E-01
  2.000E-02  1.862E-01  1.017E+05  2.622E-10  6.500E-02  7.563E-01  7.562E-01
  2.000E-02  1.925E-01  1.017E+05  2.265E-10  6.500E-02  7.565E-01  7.565E-01
  2.000E-02  1.988E-01  1.017E+05  1.780E-10  6.500E-02  7.569E-01  7.569E-01
  2.000E-02  2.052E-01  1.017E+05  1.244E-10  6.500E-02  7.575E-01  7.575E-01
  2.000E-02  2.115E-01  1.017E+05  8.791E-11  6.500E-02  7.582E-01  7.582E-01
  2.000E-02  2.178E-01  1.017E+05  4.854E-11  6.500E-02  7.592E-01  7.591E-01
  2.000E-02  2.241E-01  1.017E+05  4.552E-12  6.500E-02  7.604E-01  7.604E-01
  2.000E-02  2.304E-01  1.016E+05 -3.127E-11  6.500E-02  7.621E-01  7.620E-01
  2.000E-02  2.367E-01  1.016E+05 -5.611E-11  6.501E-02  7.642E-01  7.641E-01
  2.000E-02  2.430E-01  1.016E+05 -5.922E-11  6.500E-02  7.670E-01  7.668E-01
  2.000E-02  2.493E-01  1.016E+05 -2.582E-11  6.500E-02  7.705E-01  7.703E-01
  2.000E-02  2.557E-01  1.016E+05  3.466E-11  6.500E-02  7.748E-01  7.746E-01
  2.000E-02  2.620E-01  1.016E+05  7.305E-11  6.500E-02  7.803E-01  7.801E-01
  2.000E-02  2.683E-01  1.016E+05  7.192E-11  6.500E-02  7.871E-01  7.868E-01
  2.000E-02  2.746E-01  1.016E+05  3.766E-11  6.500E-02  7.955E-01  7.951E-01
  2.000E-02  2.809E-01  1.016E+05 -8.020E-13  6.500E-02  8.056E-01  8.052E-01
  2.000E-02  2.872E-01  1.016E+05 -2.672E-11  6.500E-02  8.179E-01  8.173E-01
  2.000E-02  2.935E-01  1.016E+05 -3.403E-11  6.501E-02  8.326E-01  8.319E-01
  2.000E-02  2.998E-01  1.016E+05 -4.140E-11  6.500E-02  8.500E-01  8.492E-01
  2.000E-02  3.062E-01  1.016E+05 -4.864E-11  6.500E-02  8.705E-01  8.695E-01
  2.000E-02  3.125E-01  1.015E+05 -3.205E-11  6.500E-02  8.943E-01  8.932E-01
  2.000E-02  3.188E-01  1.015E+05 -9.748E-12  6.500E-02  9.219E-01  9.207E-01
  2.000E-02  3.251E-01  1.015E+05  1.460E-11  6.500E-02  9.535E-01  9.521E-01
  2.000E-02  3.314E-01  1.015E+05  2.777E-11  6.500E-02  9.894E-01  9.878E-01
  2.000E-02  3.377E-01  1.015E+05  3.895E-11  6.500E-02  1.030E+00  1.028E+00
  2.000E-02  3.440E-01  1.015E+05  2.899E-11  6.500E-02  1.075E+00  1.073E+00
  2.000E-02  3.503E-01  1.015E+05  4.710E-12  6.500E-02  1.125E+00  1.122E+00
  2.000E-02  3.567E-01  1.015E+05 -1.535E-11  6.500E-02  1.179E+00  1.177E+00
  2.000E-02  3.630E-01  1.015E+05 -2.027E-11  6.501E-02  1.238E+00  1.236E+00
  2.000E-02  3.693E-01  1.015E+05 -1.878E-11  6.500E-02  1.302E+00  1.299E+00
  2.000E-02  3.756E-01  1.015E+05 -1.729E-11  6.500E-02  1.370E+00  1.367E+00
  2.000E-02  3.819E-01  1.015E+05 -7.517E-12  6.500E-02  1.441E+00  1.438E+00
  2.000E-02  3.882E-01  1.015E+05 -8.948E-12  6.500E-02  1.516E+00  1.513E+00
  2.000E-02  3.945E-01  1.015E+05 -8.166E-12  6.500E-02  1.593E+00  1.590E+00
  2.000E-02  4.008E-01  1.014E+05  3.765E-12  6.500E-02  1.672E+00  1.668E+00
  2.000E-02  4.072E-01  1.014E+05  3.998E-11  6.500E-02  1.751E+00  1.748E+00
  2.000E-02  4.135E-01  1.014E+05  6.174E-11  6.500E-02  1.831E+00  1.827E+00
  2.000E-02  4.198E-01  1.014E+05  4.958E-11  6.500E-02  1.909E+00  1.905E+00
  2.000E-02  4.261E-01  1.014E+05  1.254E-11  6.500E-02  1.984E+00  1.981E+00
  2.000E-02  4.324E-01  1.014E+05 -3.769E-11  6.501E-02  2.056E+00  2.053E+00
  2.000E-02  4.387E-01  1.014E+05 -6.352E-11  6.500E-02  2.124E+00  2.121E+00
  2.000E-02  4.450E-01  1.014E+05 -4.317E-11  6.500E-02  2.186E+00  2.183E+00
  2.000E-02  4.513E-01  1.014E+05  1.105E-11  6.500E-02  2.241E+00  2.239E+00
  2.000E-02  4.577E-01  1.014E+05  5.688E-11  6.500E-02  2.289E+00  2.287E+00
  2.000E-02  4.640E-01  1.014E+05  6.736E-11  6.500E-02  2.329E+00  2.327E+00
  2.000E-02  4.703E-01  1.014E+05  3.607E-11  6.500E-02  2.359E+00  2.358E+00
  2.000E-02  4.766E-01  1.014E+05 -1.466E-11  6.500E-02  2.381E+00  2.380E+00
  2.000E-02  4.829E-01  1.014E+05 -6.654E-11  6.500E-02  2.393E+00  2.392E+00
  2.000E-02  4.892E-01  1.013E+05 -9.412E-11  6.500E-02  2.397E+00  2.396E+00
  2.000E-02  4.955E-01  1.013E+05 -1.157E-10  6.500E-02  2.394E+00  2.394E+00
  2.000E-02  5.018E-01  1.013E+05 -1.205E-10  6.500E-02  2.389E+00  2.389E+00
  2.000E-02  5.050E-01  1.013E+05 -1.205E-10  6.500E-02  2.389E+00  2.389E+00
  2.800E-02  0.000E+00  1.019E+05  4.110E-07  6.500E-02  7.537E-01  7.537E-01
  2.800E-02  3.156E-03  1.019E+05  4.110E-07  6.498E-02  7.537E-01  7.537E-01
  2.800E-02  9.469E-03  1.019E+05  3.558E-07  6.500E-02  7.537E-01  7.537E-01
  2.800E-02  1.578E-02  1.019E+05  3.477E-07  6.500E-02  7.537E-01  7.537E-01
  2.800E-02  2.209E-02  1.019E+05  3.357E-07  6.500E-02  7.537E-01  7.537E-01
  2.800E-02  2.841E-02  1.019E+05  9.433E-07  6.501E-02  7.537E-01  7.537E-01
  2.800E-02  3.472E-02  1.019E+05  9.450E-07  6.500E-02  7.537E-01  7.537E-01
  2.800E-02  4.103E-02  1.019E+05  8.753E-07  6.500E-02  7.537E-01  7.537E-01
  2.800E-02  4.734E-02  1.019E+05  1.945E-07  6.500E-02  7.537E-01  7.537E-01
  2.800E-02  5.366E-02  1.019E+05  1.262E-07  6.500E-02  7.537E-01  7.537E-01
  2.800E-02  5.997E-02  1.018E+05  5.405E-08  6.500E-02  7.537E-01  7.537E-01
  2.800E-02  6.628E-02  1.018E+05  3.242E-08  6.500E-02  7.537E-01  7.537E-01
  2.800E-02  7.259E-02  1.018E+05  2.053E-08  6.500E-02  7.537E-01  7.537E-01
  2.800E-02  7.891E-02  1.018E+05  1.460E-08  6.500E-02  7.537E-01  7.537E-01
  2.800E-02  8.522E-02  1.018E+05  1.096E-08  6.500E-02  7.537E-01  7.537E-01
  2.800E-02  9.153E-02  1.018E+05  8.446E-09  6.500E-02  7.537E-01  7.537E-01
  2.800E-02  9.784E-02  1.018E+05  6.561E-09  6.501E-02  7.537E-01  7.537E-01
  2.800E-02  1.042E-01  1.018E+05  5.144E-09  6.500E-02  7.537E-01  7.537E-01
  2.800E-02  1.105E-01  1.018E+05  4.077E-09  6.500E-02  7.537E-01  7.537E-01
  2.800E-02  1.168E-01  1.018E+05  3.227E-09  6.500E-02  7.537E-01  7.537E-01
  2.800E-02  1.231E-01  1.018E+05  2.564E-09  6.500E-02  7.537E-01  7.537E-01
  2.800E-02  1.294E-01  1.018E+05  2.014E-09  6.500E-02  7.537E-01  7.537E-01
  2.800E-02  1.357E-01  1.018E+05  1.523E-09  6.500E-02  7.537E-01  7.537E-01
  2.800E-02  1.420E-01  1.017E+05  1.181E-09  6.500E-02  7.537E-01  7.537E-01
  2.800E-02  1.483E-01  1.017E+05  9.336E-10  6.500E-02  7.538E-01  7.538E-01
  2.800E-02  1.547E-01  1.017E+05  7.216E-10  6.500E-02  7.538E-01  7.538E-01
  2.800E-02  1.610E-01  1.017E+05  5.535E-10  6.500E-02  7.539E-01  7.539E-01
  2.800E-02  1.673E-01  1.017E+05  4.414E-10  6.501E-02  7.539E-01  7.539E-01
  2.800E-02  1.736E-01  1.017E+05  3.776E-10  6.500E-02  7.541E-01  7.540E-01
  2.800E-02  1.799E-01  1.017E+05  3.345E-10  6.500E-02  7.542E-01  7.542E-01
  2.800E-02  1.862E-01  1.017E+05  2.942E-10  6.500E-02  7.544E-01  7.544E-01
  2.800E-02  1.925E-01  1.017E+05  2.338E-10  6.500E-02  7.547E-01  7.547E-01
  2.800E-02  1.988E-01  1.017E+05  1.704E-10  6.500E-02  7.551E-01  7.551E-01
  2.800E-02  2.052E-01  1.017E+05  1.087E-10  6.500E-02  7.557E-01  7.556E-01
  2.800E-02  2.115E-01  1.017E+05  6.866E-11  6.500E-02  7.564E-01  7.563E-01
  2.800E-02  2.178E-01  1.017E+05  3.752E-11  6.500E-02  7.573E-01  7.573E-01
  2.800E-02  2.241E-01  1.017E+05  2.124E-11  6.500E-02  7.586E-01  7.586E-01
  2.800E-02  2.304E-01  1.016E+05  8.138E-12  6.500E-02  7.603E-01  7.602E-01
  2.800E-02  2.367E-01  1.016E+05  2.753E-12  6.501E-02  7.624E-01  7.623E-01
  2.800E-02  2.430E-01  1.016E+05  7.059E-12  6.500E-02  7.651E-01  7.650E-01
  2.800E-02  2.493E-01  1.016E+05  1.889E-11  6.500E-02  7.686E-01  7.685E-01
  2.800E-02  2.557E-01  1.016E+05  3.475E-11  6.500E-02  7.730E-01  7.728E-01
  2.800E-02  2.620E-01  1.016E+05  3.116E-11  6.500E-02  7.785E-01  7.783E-01
  2.800E-02  2.683E-01  1.016E+05  1.529E-11  6.500E-02  7.853E-01  7.850E-01
  2.800E-02  2.746E-01  1.016E+05 -7.588E-12  6.500E-02  7.937E-01  7.933E-01
  2.800E-02  2.809E-01  1.016E+05 -1.520E-11  6.500E-02  8.038E-01  8.034E-01
  2.800E-02  2.872E-01  1.016E+05 -1.695E-11  6.500E-02  8.161E-01  8.156E-01
  2.800E-02  2.935E-01  1.016E+05 -1.424E-11  6.501E-02  8.308E-01  8.301E-01
  2.800E-02  2.998E-01  1.016E+05 -1.340E-11  6.500E-02  8.482E-01  8.474E-01
  2.800E-02  3.062E-01  1.016E+05 -1.643E-11  6.500E-02  8.687E-01  8.678E-01
  2.800E-02  3.125E-01  1.015E+05 -9.096E-12  6.500E-02  8.926E-01  8.915E-01
  2.800E-02  3.188E-01  1.015E+05 -2.923E-12  6.500E-02  9.202E-01  9.189E-01
  2.800E-02  3.251E-01  1.015E+05  6.778E-12  6.500E-02  9.518E-01  9.504E-01
  2.800E-02  3.314E-01  1.015E+05  3.918E-12  6.500E-02  9.877E-01  9.861E-01
  2.800E-02  3.377E-01  1.015E+05 -5.637E-14  6.500E-02  1.028E+00  1.026E+00