VARIABLES="XP","YP","P","U","V","TS","TF"
ZONE T="Zone 001"I=    62 J=    22 F=POINT
  0.000E+00  0.000E+00 -2.361E-03  0.000E+00  0.000E+00  2.930E+02  2.930E+02
  0.000E+00  4.208E-03 -2.361E-03  0.000E+00  0.000E+00  2.930E+02  2.930E+02
  0.000E+00  1.262E-02 -2.362E-03  0.000E+00  0.000E+00  2.930E+02  2.930E+02
  0.000E+00  2.104E-02 -2.362E-03  0.000E+00  0.000E+00  2.930E+02  2.930E+02
  0.000E+00  2.946E-02 -2.363E-03  0.000E+00  0.000E+00  2.930E+02  2.930E+02
  0.000E+00  3.787E-02 -2.363E-03  0.000E+00  0.000E+00  2.930E+02  2.931E+02
  0.000E+00  4.629E-02 -2.363E-03  0.000E+00  0.000E+00  2.930E+02  2.932E+02
  0.000E+00  5.471E-02 -2.363E-03  0.000E+00  0.000E+00  2.930E+02  2.935E+02
  0.000E+00  6.313E-02 -2.363E-03  0.000E+00  0.000E+00  2.930E+02  2.942E+02
  0.000E+00  7.154E-02 -2.363E-03  0.000E+00  0.000E+00  2.930E+02  2.958E+02
  0.000E+00  7.996E-02 -2.363E-03  0.000E+00  0.000E+00  2.930E+02  2.992E+02
  0.000E+00  8.838E-02 -2.363E-03  0.000E+00  0.000E+00  2.930E+02  3.062E+02
  0.000E+00  9.679E-02 -2.363E-03  0.000E+00  0.000E+00  2.930E+02  3.202E+02
  0.000E+00  1.052E-01 -2.363E-03  0.000E+00  0.000E+00  2.931E+02  3.455E+02
  0.000E+00  1.136E-01 -2.363E-03  0.000E+00  0.000E+00  2.930E+02  3.202E+02
  0.000E+00  1.220E-01 -2.363E-03  0.000E+00  0.000E+00  2.930E+02  3.062E+02
  0.000E+00  1.305E-01 -2.363E-03  0.000E+00  0.000E+00  2.930E+02  2.992E+02
  0.000E+00  1.389E-01 -2.362E-03  0.000E+00  0.000E+00  2.930E+02  2.958E+02
  0.000E+00  1.473E-01 -2.362E-03  0.000E+00  0.000E+00  2.930E+02  2.942E+02
  0.000E+00  1.557E-01 -2.362E-03  0.000E+00  0.000E+00  2.930E+02  2.935E+02
  0.000E+00  1.641E-01 -2.361E-03  0.000E+00  0.000E+00  2.930E+02  2.932E+02
  0.000E+00  1.725E-01 -2.361E-03  0.000E+00  0.000E+00  2.930E+02  2.931E+02
  0.000E+00  1.810E-01 -2.360E-03  0.000E+00  0.000E+00  2.930E+02  2.930E+02
  0.000E+00  1.894E-01 -2.360E-03  0.000E+00  0.000E+00  2.930E+02  2.930E+02
  0.000E+00  1.978E-01 -2.359E-03  0.000E+00  0.000E+00  2.930E+02  2.930E+02
  0.000E+00  2.062E-01 -2.358E-03  0.000E+00  0.000E+00  2.930E+02  2.930E+02
  0.000E+00  2.146E-01 -2.357E-03  0.000E+00  0.000E+00  2.930E+02  2.930E+02
  0.000E+00  2.230E-01 -2.356E-03  0.000E+00  0.000E+00  2.930E+02  2.930E+02
  0.000E+00  2.315E-01 -2.355E-03  0.000E+00  0.000E+00  2.930E+02  2.930E+02
  0.000E+00  2.399E-01 -2.353E-03  0.000E+00  0.000E+00  2.930E+02  2.930E+02
  0.000E+00  2.483E-01 -2.351E-03  0.000E+00  0.000E+00  2.930E+02  2.930E+02
  0.000E+00  2.567E-01 -2.348E-03  0.000E+00  0.000E+00  2.930E+02  2.930E+02
  0.000E+00  2.651E-01 -2.346E-03  0.000E+00  0.000E+00  2.930E+02  2.930E+02
  0.000E+00  2.735E-01 -2.342E-03  0.000E+00  0.000E+00  2.930E+02  2.930E+02
  0.000E+00  2.820E-01 -2.338E-03  0.000E+00  0.000E+00  2.930E+02  2.930E+02
  0.000E+00  2.904E-01 -2.333E-03  0.000E+00  0.000E+00  2.930E+02  2.930E+02
  0.000E+00  2.988E-01 -2.328E-03  0.000E+00  0.000E+00  2.930E+02  2.930E+02
  0.000E+00  3.072E-01 -2.321E-03  0.000E+00  0.000E+00  2.930E+02  2.930E+02
  0.000E+00  3.156E-01 -2.314E-03  0.000E+00  0.000E+00  2.930E+02  2.930E+02
  0.000E+00  3.240E-01 -2.304E-03  0.000E+00  0.000E+00  2.930E+02  2.930E+02
  0.000E+00  3.325E-01 -2.293E-03  0.000E+00  0.000E+00  2.930E+02  2.930E+02
  0.000E+00  3.409E-01 -2.280E-03  0.000E+00  0.000E+00  2.930E+02  2.930E+02
  0.000E+00  3.493E-01 -2.265E-03  0.000E+00  0.000E+00  2.930E+02  2.930E+02
  0.000E+00  3.577E-01 -2.247E-03  0.000E+00  0.000E+00  2.930E+02  2.930E+02
  0.000E+00  3.661E-01 -2.226E-03  0.000E+00  0.000E+00  2.930E+02  2.930E+02
  0.000E+00  3.745E-01 -2.200E-03  0.000E+00  0.000E+00  2.930E+02  2.930E+02
  0.000E+00  3.830E-01 -2.171E-03  0.000E+00  0.000E+00  2.930E+02  2.930E+02
  0.000E+00  3.914E-01 -2.135E-03  0.000E+00  0.000E+00  2.930E+02  2.930E+02
  0.000E+00  3.998E-01 -2.093E-03  0.000E+00  0.000E+00  2.930E+02  2.930E+02
  0.000E+00  4.082E-01 -2.043E-03  0.000E+00  0.000E+00  2.930E+02  2.930E+02
  0.000E+00  4.166E-01 -1.984E-03  0.000E+00  0.000E+00  2.930E+02  2.931E+02
  0.000E+00  4.250E-01 -1.915E-03  0.000E+00  0.000E+00  2.930E+02  2.932E+02
  0.000E+00  4.335E-01 -1.831E-03  0.000E+00  0.000E+00  2.930E+02  2.936E+02
  0.000E+00  4.419E-01 -1.732E-03  0.000E+00  0.000E+00  2.930E+02  2.944E+02
  0.000E+00  4.503E-01 -1.614E-03  0.000E+00  0.000E+00  2.930E+02  2.961E+02
  0.000E+00  4.587E-01 -1.471E-03  0.000E+00  0.000E+00  2.930E+02  2.999E+02
  0.000E+00  4.671E-01 -1.303E-03  0.000E+00  0.000E+00  2.930E+02  3.078E+02
  0.000E+00  4.755E-01 -1.086E-03  0.000E+00  0.000E+00  2.930E+02  3.235E+02
  0.000E+00  4.840E-01 -8.498E-04  0.000E+00  0.000E+00  2.930E+02  3.522E+02
  0.000E+00  4.924E-01 -5.071E-04  0.000E+00  0.000E+00  2.930E+02  4.014E+02
  0.000E+00  5.008E-01  7.324E-05  0.000E+00  0.000E+00  2.965E+02  4.659E+02
  0.000E+00  5.050E-01  7.324E-05  0.000E+00  0.000E+00  2.965E+02  4.659E+02
  4.000E-03  0.000E+00 -2.234E-03 -3.487E-04  0.000E+00  2.930E+02  2.930E+02
  4.000E-03  4.208E-03 -2.235E-03 -3.487E-04  8.834E-07  2.930E+02  2.930E+02
  4.000E-03  1.262E-02 -2.235E-03 -3.493E-04  6.181E-07  2.930E+02  2.930E+02
  4.000E-03  2.104E-02 -2.236E-03 -3.494E-04  4.204E-07  2.930E+02  2.930E+02
  4.000E-03  2.946E-02 -2.236E-03 -3.495E-04  2.629E-07  2.930E+02  2.930E+02
  4.000E-03  3.787E-02 -2.236E-03 -3.496E-04  1.932E-07  2.930E+02  2.931E+02
  4.000E-03  4.629E-02 -2.236E-03 -3.496E-04  1.342E-07  2.930E+02  2.932E+02
  4.000E-03  5.471E-02 -2.236E-03 -3.496E-04  9.062E-08  2.930E+02  2.935E+02
  4.000E-03  6.313E-02 -2.236E-03 -3.496E-04  5.306E-08  2.930E+02  2.942E+02
  4.000E-03  7.154E-02 -2.237E-03 -3.496E-04  1.943E-08  2.930E+02  2.958E+02
  4.000E-03  7.996E-02 -2.237E-03 -3.496E-04 -1.230E-08  2.930E+02  2.992E+02
  4.000E-03  8.838E-02 -2.237E-03 -3.496E-04 -4.369E-08  2.930E+02  3.062E+02
  4.000E-03  9.679E-02 -2.236E-03 -3.496E-04 -7.602E-08  2.930E+02  3.202E+02
  4.000E-03  1.052E-01 -2.236E-03 -3.496E-04 -1.103E-07  2.931E+02  3.455E+02
  4.000E-03  1.136E-01 -2.236E-03 -3.496E-04 -1.475E-07  2.930E+02  3.202E+02
  4.000E-03  1.220E-01 -2.236E-03 -3.496E-04 -1.888E-07  2.930E+02  3.062E+02
  4.000E-03  1.305E-01 -2.236E-03 -3.496E-04 -2.355E-07  2.930E+02  2.992E+02
  4.000E-03  1.389E-01 -2.236E-03 -3.496E-04 -2.888E-07  2.930E+02  2.958E+02
  4.000E-03  1.473E-01 -2.236E-03 -3.495E-04 -3.502E-07  2.930E+02  2.942E+02
  4.000E-03  1.557E-01 -2.235E-03 -3.495E-04 -4.216E-07  2.930E+02  2.935E+02
  4.000E-03  1.641E-01 -2.235E-03 -3.495E-04 -5.050E-07  2.930E+02  2.932E+02
  4.000E-03  1.725E-01 -2.234E-03 -3.495E-04 -6.026E-07  2.930E+02  2.931E+02
  4.000E-03  1.810E-01 -2.234E-03 -3.495E-04 -7.173E-07  2.930E+02  2.930E+02
  4.000E-03  1.894E-01 -2.233E-03 -3.494E-04 -8.521E-07  2.930E+02  2.930E+02
  4.000E-03  1.978E-01 -2.233E-03 -3.494E-04 -1.011E-06  2.930E+02  2.930E+02
  4.000E-03  2.062E-01 -2.232E-03 -3.494E-04 -1.199E-06  2.930E+02  2.930E+02
  4.000E-03  2.146E-01 -2.231E-03 -3.493E-04 -1.420E-06  2.930E+02  2.930E+02
  4.000E-03  2.230E-01 -2.230E-03 -3.493E-04 -1.682E-06  2.930E+02  2.930E+02
  4.000E-03  2.315E-01 -2.228E-03 -3.492E-04 -1.991E-06  2.930E+02  2.930E+02
  4.000E-03  2.399E-01 -2.226E-03 -3.492E-04 -2.357E-06  2.930E+02  2.930E+02
  4.000E-03  2.483E-01 -2.224E-03 -3.491E-04 -2.788E-06  2.930E+02  2.930E+02
  4.000E-03  2.567E-01 -2.222E-03 -3.490E-04 -3.299E-06  2.930E+02  2.930E+02
  4.000E-03  2.651E-01 -2.219E-03 -3.489E-04 -3.903E-06  2.930E+02  2.930E+02
  4.000E-03  2.735E-01 -2.216E-03 -3.487E-04 -4.618E-06  2.930E+02  2.930E+02
  4.000E-03  2.820E-01 -2.212E-03 -3.486E-04 -5.462E-06  2.930E+02  2.930E+02
  4.000E-03  2.904E-01 -2.207E-03 -3.484E-04 -6.461E-06  2.930E+02  2.930E+02
  4.000E-03  2.988E-01 -2.202E-03 -3.481E-04 -7.643E-06  2.930E+02  2.930E+02
  4.000E-03  3.072E-01 -2.195E-03 -3.479E-04 -9.041E-06  2.930E+02  2.930E+02
  4.000E-03  3.156E-01 -2.188E-03 -3.476E-04 -1.069E-05  2.930E+02  2.930E+02
  4.000E-03  3.240E-01 -2.179E-03 -3.472E-04 -1.265E-05  2.930E+02  2.930E+02
  4.000E-03  3.325E-01 -2.168E-03 -3.467E-04 -1.496E-05  2.930E+02  2.930E+02
  4.000E-03  3.409E-01 -2.155E-03 -3.462E-04 -1.770E-05  2.930E+02  2.930E+02
  4.000E-03  3.493E-01 -2.140E-03 -3.456E-04 -2.094E-05  2.930E+02  2.930E+02
  4.000E-03  3.577E-01 -2.122E-03 -3.449E-04 -2.477E-05  2.930E+02  2.930E+02
  4.000E-03  3.661E-01 -2.101E-03 -3.440E-04 -2.930E-05  2.930E+02  2.930E+02
  4.000E-03  3.745E-01 -2.077E-03 -3.430E-04 -3.468E-05  2.930E+02  2.930E+02
  4.000E-03  3.830E-01 -2.047E-03 -3.417E-04 -4.104E-05  2.930E+02  2.930E+02
  4.000E-03  3.914E-01 -2.012E-03 -3.403E-04 -4.858E-05  2.930E+02  2.930E+02
  4.000E-03  3.998E-01 -1.971E-03 -3.385E-04 -5.754E-05  2.930E+02  2.930E+02
  4.000E-03  4.082E-01 -1.922E-03 -3.364E-04 -6.818E-05  2.930E+02  2.930E+02
  4.000E-03  4.166E-01 -1.864E-03 -3.339E-04 -8.086E-05  2.930E+02  2.931E+02
  4.000E-03  4.250E-01 -1.796E-03 -3.308E-04 -9.601E-05  2.930E+02  2.932E+02
  4.000E-03  4.335E-01 -1.714E-03 -3.271E-04 -1.142E-04  2.930E+02  2.936E+02
  4.000E-03  4.419E-01 -1.617E-03 -3.224E-04 -1.360E-04  2.930E+02  2.944E+02
  4.000E-03  4.503E-01 -1.501E-03 -3.164E-04 -1.630E-04  2.930E+02  2.961E+02
  4.000E-03  4.587E-01 -1.361E-03 -3.087E-04 -1.946E-04  2.930E+02  2.999E+02
  4.000E-03  4.671E-01 -1.196E-03 -2.985E-04 -2.401E-04  2.930E+02  3.078E+02
  4.000E-03  4.755E-01 -9.843E-04 -2.838E-04 -2.805E-04  2.930E+02  3.235E+02
  4.000E-03  4.840E-01 -7.591E-04 -2.618E-04 -3.664E-04  2.930E+02  3.522E+02
  4.000E-03  4.924E-01 -4.054E-04 -2.505E-04 -5.251E-04  2.930E+02  4.014E+02
  4.000E-03  5.008E-01  7.169E-05 -7.844E-05 -2.198E-04  2.965E+02  4.659E+02
  4.000E-03  5.050E-01  0.000E+00  0.000E+00 -2.198E-04  2.930E+02  2.930E+02
  1.200E-02  0.000E+00 -1.975E-03 -3.169E-04  0.000E+00  2.930E+02  2.930E+02
  1.200E-02  4.208E-03 -1.975E-03 -3.169E-04  2.832E-07  2.930E+02  2.930E+02
  1.200E-02  1.262E-02 -1.975E-03 -3.172E-04  3.390E-07  2.930E+02  2.930E+02
  1.200E-02  2.104E-02 -1.975E-03 -3.173E-04  3.208E-07  2.930E+02  2.930E+02
  1.200E-02  2.946E-02 -1.975E-03 -3.174E-04  2.384E-07  2.930E+02  2.930E+02
  1.200E-02  3.787E-02 -1.976E-03 -3.174E-04  1.812E-07  2.930E+02  2.931E+02
  1.200E-02  4.629E-02 -1.976E-03 -3.174E-04  1.299E-07  2.930E+02  2.932E+02
  1.200E-02  5.471E-02 -1.976E-03 -3.175E-04  8.861E-08  2.930E+02  2.935E+02
  1.200E-02  6.313E-02 -1.976E-03 -3.175E-04  5.228E-08  2.930E+02  2.942E+02
  1.200E-02  7.154E-02 -1.976E-03 -3.175E-04  1.929E-08  2.930E+02  2.958E+02
  1.200E-02  7.996E-02 -1.976E-03 -3.175E-04 -1.207E-08  2.930E+02  2.992E+02
  1.200E-02  8.838E-02 -1.976E-03 -3.175E-04 -4.308E-08  2.930E+02  3.063E+02
  1.200E-02  9.679E-02 -1.976E-03 -3.175E-04 -7.500E-08  2.930E+02  3.202E+02
  1.200E-02  1.052E-01 -1.976E-03 -3.175E-04 -1.089E-07  2.931E+02  3.455E+02
  1.200E-02  1.136E-01 -1.976E-03 -3.175E-04 -1.458E-07  2.930E+02  3.202E+02
  1.200E-02  1.220E-01 -1.976E-03 -3.175E-04 -1.868E-07  2.930E+02  3.063E+02
  1.200E-02  1.305E-01 -1.975E-03 -3.174E-04 -2.330E-07  2.930E+02  2.992E+02
  1.200E-02  1.389E-01 -1.975E-03 -3.174E-04 -2.858E-07  2.930E+02  2.958E+02
  1.200E-02  1.473E-01 -1.975E-03 -3.174E-04 -3.467E-07  2.930E+02  2.942E+02
  1.200E-02  1.557E-01 -1.975E-03 -3.174E-04 -4.174E-07  2.930E+02  2.935E+02
  1.200E-02  1.641E-01 -1.974E-03 -3.174E-04 -4.999E-07  2.930E+02  2.932E+02
  1.200E-02  1.725E-01 -1.974E-03 -3.174E-04 -5.966E-07  2.930E+02  2.931E+02
  1.200E-02  1.810E-01 -1.973E-03 -3.173E-04 -7.101E-07  2.930E+02  2.930E+02
  1.200E-02  1.894E-01 -1.973E-03 -3.173E-04 -8.438E-07  2.930E+02  2.930E+02
  1.200E-02  1.978E-01 -1.972E-03 -3.173E-04 -1.001E-06  2.930E+02  2.930E+02
  1.200E-02  2.062E-01 -1.971E-03 -3.172E-04 -1.187E-06  2.930E+02  2.930E+02
  1.200E-02  2.146E-01 -1.970E-03 -3.172E-04 -1.406E-06  2.930E+02  2.930E+02
  1.200E-02  2.230E-01 -1.969E-03 -3.171E-04 -1.666E-06  2.930E+02  2.930E+02
  1.200E-02  2.315E-01 -1.968E-03 -3.170E-04 -1.972E-06  2.930E+02  2.930E+02
  1.200E-02  2.399E-01 -1.966E-03 -3.170E-04 -2.334E-06  2.930E+02  2.930E+02
  1.200E-02  2.483E-01 -1.964E-03 -3.168E-04 -2.761E-06  2.930E+02  2.930E+02
  1.200E-02  2.567E-01 -1.962E-03 -3.167E-04 -3.267E-06  2.930E+02  2.930E+02
  1.200E-02  2.651E-01 -1.959E-03 -3.166E-04 -3.865E-06  2.930E+02  2.930E+02
  1.200E-02  2.735E-01 -1.956E-03 -3.164E-04 -4.573E-06  2.930E+02  2.930E+02
  1.200E-02  2.820E-01 -1.952E-03 -3.162E-04 -5.409E-06  2.930E+02  2.930E+02
  1.200E-02  2.904E-01 -1.948E-03 -3.160E-04 -6.399E-06  2.930E+02  2.930E+02
  1.200E-02  2.988E-01 -1.942E-03 -3.157E-04 -7.569E-06  2.930E+02  2.930E+02
  1.200E-02  3.072E-01 -1.936E-03 -3.154E-04 -8.953E-06  2.930E+02  2.930E+02
  1.200E-02  3.156E-01 -1.929E-03 -3.150E-04 -1.059E-05  2.930E+02  2.930E+02
  1.200E-02  3.240E-01 -1.920E-03 -3.145E-04 -1.253E-05  2.930E+02  2.930E+02
  1.200E-02  3.325E-01 -1.909E-03 -3.140E-04 -1.482E-05  2.930E+02  2.930E+02
  1.200E-02  3.409E-01 -1.897E-03 -3.133E-04 -1.753E-05  2.930E+02  2.930E+02
  1.200E-02  3.493E-01 -1.882E-03 -3.125E-04 -2.073E-05  2.930E+02  2.930E+02
  1.200E-02  3.577E-01 -1.865E-03 -3.116E-04 -2.452E-05  2.930E+02  2.930E+02
  1.200E-02  3.661E-01 -1.845E-03 -3.105E-04 -2.901E-05  2.930E+02  2.930E+02
  1.200E-02  3.745E-01 -1.820E-03 -3.093E-04 -3.433E-05  2.930E+02  2.930E+02
  1.200E-02  3.830E-01 -1.792E-03 -3.077E-04 -4.062E-05  2.930E+02  2.930E+02
  1.200E-02  3.914E-01 -1.758E-03 -3.059E-04 -4.808E-05  2.930E+02  2.930E+02
  1.200E-02  3.998E-01 -1.718E-03 -3.037E-04 -5.692E-05  2.930E+02  2.930E+02
  1.200E-02  4.082E-01 -1.671E-03 -3.011E-04 -6.741E-05  2.930E+02  2.930E+02
  1.200E-02  4.166E-01 -1.614E-03 -2.980E-04 -7.990E-05  2.930E+02  2.931E+02
  1.200E-02  4.250E-01 -1.548E-03 -2.942E-04 -9.476E-05  2.930E+02  2.932E+02
  1.200E-02  4.335E-01 -1.469E-03 -2.895E-04 -1.126E-04  2.930E+02  2.936E+02
  1.200E-02  4.419E-01 -1.375E-03 -2.836E-04 -1.338E-04  2.930E+02  2.943E+02
  1.200E-02  4.503E-01 -1.263E-03 -2.762E-04 -1.598E-04  2.930E+02  2.961E+02
  1.200E-02  4.587E-01 -1.129E-03 -2.665E-04 -1.900E-04  2.930E+02  2.999E+02
  1.200E-02  4.671E-01 -9.712E-04 -2.540E-04 -2.322E-04  2.930E+02  3.078E+02
  1.200E-02  4.755E-01 -7.713E-04 -2.342E-04 -2.703E-04  2.930E+02  3.235E+02
  1.200E-02  4.840E-01 -5.577E-04 -2.117E-04 -3.458E-04  2.930E+02  3.522E+02
  1.200E-02  4.924E-01 -2.366E-04 -1.666E-04 -4.714E-04  2.930E+02  4.010E+02
  1.200E-02  5.008E-01  1.775E-04 -4.562E-05 -5.524E-05  2.965E+02  4.655E+02
  1.200E-02  5.050E-01  0.000E+00  0.000E+00 -5.524E-05  2.930E+02  2.930E+02
  2.000E-02  0.000E+00 -1.766E-03 -3.154E-04  0.000E+00  2.930E+02  2.930E+02
  2.000E-02  4.208E-03 -1.766E-03 -3.154E-04  2.212E-07  2.930E+02  2.930E+02
  2.000E-02  1.262E-02 -1.767E-03 -3.155E-04  1.961E-07  2.930E+02  2.930E+02
  2.000E-02  2.104E-02 -1.767E-03 -3.156E-04  2.185E-07  2.930E+02  2.930E+02
  2.000E-02  2.946E-02 -1.767E-03 -3.157E-04  1.755E-07  2.930E+02  2.930E+02
  2.000E-02  3.787E-02 -1.767E-03 -3.157E-04  1.434E-07  2.930E+02  2.931E+02
  2.000E-02  4.629E-02 -1.767E-03 -3.158E-04  1.078E-07  2.930E+02  2.932E+02
  2.000E-02  5.471E-02 -1.767E-03 -3.158E-04  7.533E-08  2.930E+02  2.935E+02
  2.000E-02  6.313E-02 -1.767E-03 -3.158E-04  4.462E-08  2.930E+02  2.942E+02
  2.000E-02  7.154E-02 -1.767E-03 -3.158E-04  1.539E-08  2.930E+02  2.958E+02
  2.000E-02  7.996E-02 -1.767E-03 -3.158E-04 -1.324E-08  2.930E+02  2.992E+02
  2.000E-02  8.838E-02 -1.767E-03 -3.158E-04 -4.212E-08  2.930E+02  3.063E+02
  2.000E-02  9.679E-02 -1.767E-03 -3.158E-04 -7.208E-08  2.930E+02  3.202E+02
  2.000E-02  1.052E-01 -1.767E-03 -3.158E-04 -1.041E-07  2.931E+02  3.455E+02
  2.000E-02  1.136E-01 -1.767E-03 -3.158E-04 -1.390E-07  2.930E+02  3.202E+02
  2.000E-02  1.220E-01 -1.767E-03 -3.158E-04 -1.779E-07  2.930E+02  3.063E+02
  2.000E-02  1.305E-01 -1.767E-03 -3.157E-04 -2.218E-07  2.930E+02  2.992E+02
  2.000E-02  1.389E-01 -1.767E-03 -3.157E-04 -2.720E-07  2.930E+02  2.958E+02
  2.000E-02  1.473E-01 -1.766E-03 -3.157E-04 -3.299E-07  2.930E+02  2.942E+02
  2.000E-02  1.557E-01 -1.766E-03 -3.157E-04 -3.971E-07  2.930E+02  2.935E+02
  2.000E-02  1.641E-01 -1.766E-03 -3.157E-04 -4.756E-07  2.930E+02  2.932E+02
  2.000E-02  1.725E-01 -1.765E-03 -3.156E-04 -5.676E-07  2.930E+02  2.931E+02
  2.000E-02  1.810E-01 -1.765E-03 -3.156E-04 -6.756E-07  2.930E+02  2.930E+02
  2.000E-02  1.894E-01 -1.764E-03 -3.155E-04 -8.027E-07  2.930E+02  2.930E+02
  2.000E-02  1.978E-01 -1.764E-03 -3.155E-04 -9.525E-07  2.930E+02  2.930E+02
  2.000E-02  2.062E-01 -1.763E-03 -3.154E-04 -1.129E-06  2.930E+02  2.930E+02
  2.000E-02  2.146E-01 -1.762E-03 -3.153E-04 -1.338E-06  2.930E+02  2.930E+02
  2.000E-02  2.230E-01 -1.761E-03 -3.152E-04 -1.584E-06  2.930E+02  2.930E+02
  2.000E-02  2.315E-01 -1.760E-03 -3.151E-04 -1.876E-06  2.930E+02  2.930E+02
  2.000E-02  2.399E-01 -1.758E-03 -3.150E-04 -2.220E-06  2.930E+02  2.930E+02
  2.000E-02  2.483E-01 -1.756E-03 -3.148E-04 -2.627E-06  2.930E+02  2.930E+02
  2.000E-02  2.567E-01 -1.754E-03 -3.146E-04 -3.108E-06  2.930E+02  2.930E+02
  2.000E-02  2.651E-01 -1.751E-03 -3.144E-04 -3.677E-06  2.930E+02  2.930E+02
  2.000E-02  2.735E-01 -1.748E-03 -3.141E-04 -4.350E-06  2.930E+02  2.930E+02
  2.000E-02  2.820E-01 -1.745E-03 -3.138E-04 -5.146E-06  2.930E+02  2.930E+02
  2.000E-02  2.904E-01 -1.740E-03 -3.134E-04 -6.087E-06  2.930E+02  2.930E+02
  2.000E-02  2.988E-01 -1.735E-03 -3.129E-04 -7.200E-06  2.930E+02  2.930E+02
  2.000E-02  3.072E-01 -1.729E-03 -3.124E-04 -8.517E-06  2.930E+02  2.930E+02
  2.000E-02  3.156E-01 -1.722E-03 -3.117E-04 -1.007E-05  2.930E+02  2.930E+02
  2.000E-02  3.240E-01 -1.714E-03 -3.110E-04 -1.192E-05  2.930E+02  2.930E+02
  2.000E-02  3.325E-01 -1.704E-03 -3.101E-04 -1.409E-05  2.930E+02  2.930E+02
  2.000E-02  3.409E-01 -1.692E-03 -3.090E-04 -1.667E-05  2.930E+02  2.930E+02
  2.000E-02  3.493E-01 -1.678E-03 -3.078E-04 -1.972E-05  2.930E+02  2.930E+02
  2.000E-02  3.577E-01 -1.662E-03 -3.063E-04 -2.332E-05  2.930E+02  2.930E+02
  2.000E-02  3.661E-01 -1.642E-03 -3.046E-04 -2.759E-05  2.930E+02  2.930E+02
  2.000E-02  3.745E-01 -1.619E-03 -3.025E-04 -3.264E-05  2.930E+02  2.930E+02
  2.000E-02  3.830E-01 -1.592E-03 -3.000E-04 -3.861E-05  2.930E+02  2.930E+02
  2.000E-02  3.914E-01 -1.560E-03 -2.971E-04 -4.568E-05  2.930E+02  2.930E+02
  2.000E-02  3.998E-01 -1.522E-03 -2.936E-04 -5.405E-05  2.930E+02  2.930E+02
  2.000E-02  4.082E-01 -1.477E-03 -2.894E-04 -6.397E-05  2.930E+02  2.930E+02
  2.000E-02  4.166E-01 -1.424E-03 -2.843E-04 -7.574E-05  2.930E+02  2.931E+02
  2.000E-02  4.250E-01 -1.360E-03 -2.782E-04 -8.969E-05  2.930E+02  2.932E+02
  2.000E-02  4.335E-01 -1.286E-03 -2.708E-04 -1.063E-04  2.930E+02  2.936E+02
  2.000E-02  4.419E-01 -1.197E-03 -2.616E-04 -1.260E-04  2.930E+02  2.943E+02
  2.000E-02  4.503E-01 -1.092E-03 -2.501E-04 -1.498E-04  2.930E+02  2.960E+02
  2.000E-02  4.587E-01 -9.666E-04 -2.352E-04 -1.770E-04  2.930E+02  2.998E+02
  2.000E-02  4.671E-01 -8.199E-04 -2.163E-04 -2.139E-04  2.930E+02  3.076E+02
  2.000E-02  4.755E-01 -6.371E-04 -1.886E-04 -2.456E-04  2.930E+02  3.231E+02
  2.000E-02  4.840E-01 -4.440E-04 -1.547E-04 -3.099E-04  2.930E+02  3.515E+02
  2.000E-02  4.924E-01 -1.571E-04 -9.720E-05 -3.786E-04  2.930E+02  3.995E+02
  2.000E-02  5.008E-01  1.427E-04  3.155E-05 -1.894E-05  2.965E+02  4.642E+02
  2.000E-02  5.050E-01  0.000E+00  0.000E+00 -1.894E-05  2.930E+02  2.930E+02
  2.800E-02  0.000E+00 -1.516E-03 -3.314E-04  0.000E+00  2.930E+02  2.930E+02
  2.800E-02  4.208E-03 -1.516E-03 -3.314E-04  8.828E-08  2.930E+02  2.930E+02
  2.800E-02  1.262E-02 -1.516E-03 -3.314E-04  1.170E-07  2.930E+02  2.930E+02
  2.800E-02  2.104E-02 -1.516E-03 -3.315E-04  1.478E-07  2.930E+02  2.930E+02
  2.800E-02  2.946E-02 -1.516E-03 -3.316E-04  1.317E-07  2.930E+02  2.930E+02
  2.800E-02  3.787E-02 -1.517E-03 -3.316E-04  1.122E-07  2.930E+02  2.931E+02
  2.800E-02  4.629E-02 -1.517E-03 -3.316E-04  8.734E-08  2.930E+02  2.932E+02
  2.800E-02  5.471E-02 -1.517E-03 -3.317E-04  6.210E-08  2.930E+02  2.935E+02
  2.800E-02  6.313E-02 -1.517E-03 -3.317E-04  3.678E-08  2.930E+02  2.942E+02
  2.800E-02  7.154E-02 -1.517E-03 -3.317E-04  1.166E-08  2.930E+02  2.958E+02
  2.800E-02  7.996E-02 -1.517E-03 -3.317E-04 -1.361E-08  2.930E+02  2.992E+02
  2.800E-02  8.838E-02 -1.517E-03 -3.317E-04 -3.953E-08  2.930E+02  3.063E+02
  2.800E-02  9.679E-02 -1.517E-03 -3.317E-04 -6.674E-08  2.930E+02  3.202E+02
  2.800E-02  1.052E-01 -1.517E-03 -3.317E-04 -9.597E-08  2.931E+02  3.455E+02
  2.800E-02  1.136E-01 -1.517E-03 -3.316E-04 -1.280E-07  2.930E+02  3.202E+02
  2.800E-02  1.220E-01 -1.516E-03 -3.316E-04 -1.637E-07  2.930E+02  3.063E+02
  2.800E-02  1.305E-01 -1.516E-03 -3.316E-04 -2.040E-07  2.930E+02  2.992E+02
  2.800E-02  1.389E-01 -1.516E-03 -3.316E-04 -2.502E-07  2.930E+02  2.958E+02
  2.800E-02  1.473E-01 -1.516E-03 -3.316E-04 -3.035E-07  2.930E+02  2.942E+02
  2.800E-02  1.557E-01 -1.516E-03 -3.315E-04 -3.654E-07  2.930E+02  2.935E+02
  2.800E-02  1.641E-01 -1.515E-03 -3.315E-04 -4.376E-07  2.930E+02  2.932E+02
  2.800E-02  1.725E-01 -1.515E-03 -3.314E-04 -5.222E-07  2.930E+02  2.931E+02
  2.800E-02  1.810E-01 -1.515E-03 -3.314E-04 -6.216E-07  2.930E+02  2.930E+02
  2.800E-02  1.894E-01 -1.514E-03 -3.313E-04 -7.386E-07  2.930E+02  2.930E+02
  2.800E-02  1.978E-01 -1.513E-03 -3.312E-04 -8.765E-07  2.930E+02  2.930E+02
  2.800E-02  2.062E-01 -1.513E-03 -3.311E-04 -1.039E-06  2.930E+02  2.930E+02
  2.800E-02  2.146E-01 -1.512E-03 -3.310E-04 -1.231E-06  2.930E+02  2.930E+02
  2.800E-02  2.230E-01 -1.511E-03 -3.309E-04 -1.458E-06  2.930E+02  2.930E+02
  2.800E-02  2.315E-01 -1.510E-03 -3.307E-04 -1.726E-06  2.930E+02  2.930E+02
  2.800E-02  2.399E-01 -1.508E-03 -3.305E-04 -2.043E-06  2.930E+02  2.930E+02
  2.800E-02  2.483E-01 -1.506E-03 -3.303E-04 -2.417E-06  2.930E+02  2.930E+02
  2.800E-02  2.567E-01 -1.504E-03 -3.300E-04 -2.860E-06  2.930E+02  2.930E+02
  2.800E-02  2.651E-01 -1.502E-03 -3.297E-04 -3.384E-06  2.930E+02  2.930E+02
  2.800E-02  2.735E-01 -1.499E-03 -3.293E-04 -4.003E-06  2.930E+02  2.930E+02
  2.800E-02  2.820E-01 -1.496E-03 -3.288E-04 -4.735E-06  2.930E+02  2.930E+02
  2.800E-02  2.904E-01 -1.492E-03 -3.283E-04 -5.601E-06  2.930E+02  2.930E+02
  2.800E-02  2.988E-01 -1.487E-03 -3.277E-04 -6.625E-06  2.930E+02  2.930E+02
  2.800E-02  3.072E-01 -1.482E-03 -3.269E-04 -7.836E-06  2.930E+02  2.930E+02
  2.800E-02  3.156E-01 -1.475E-03 -3.260E-04 -9.269E-06  2.930E+02  2.930E+02
  2.800E-02  3.240E-01 -1.468E-03 -3.250E-04 -1.096E-05  2.930E+02  2.930E+02
  2.800E-02  3.325E-01 -1.458E-03 -3.237E-04 -1.297E-05  2.930E+02  2.930E+02
  2.800E-02  3.409E-01 -1.448E-03 -3.223E-04 -1.534E-05  2.930E+02  2.930E+02
  2.800E-02  3.493E-01 -1.435E-03 -3.205E-04 -1.814E-05  2.930E+02  2.930E+02
  2.800E-02  3.577E-01 -1.420E-03 -3.185E-04 -2.145E-05  2.930E+02  2.930E+02
  2.800E-02  3.661E-01 -1.402E-03 -3.160E-04 -2.537E-05  2.930E+02  2.930E+02
  2.800E-02  3.745E-01 -1.381E-03 -3.132E-04 -3.001E-05  2.930E+02  2.930E+02
  2.800E-02  3.830E-01 -1.356E-03 -3.097E-04 -3.548E-05  2.930E+02  2.930E+02
  2.800E-02  3.914E-01 -1.326E-03 -3.057E-04 -4.196E-05  2.930E+02  2.930E+02
  2.800E-02  3.998E-01 -1.291E-03 -3.008E-04 -4.961E-05  2.930E+02  2.930E+02
  2.800E-02  4.082E-01 -1.250E-03 -2.950E-04 -5.865E-05  2.930E+02  2.930E+02
  2.800E-02  4.166E-01 -1.201E-03 -2.881E-04 -6.933E-05  2.930E+02  2.931E+02
  2.800E-02  4.250E-01 -1.143E-03 -2.798E-04 -8.192E-05  2.930E+02  2.932E+02
  2.800E-02  4.335E-01 -1.075E-03 -2.697E-04 -9.679E-05  2.930E+02  2.936E+02
  2.800E-02  4.419E-01 -9.945E-04 -2.573E-04 -1.142E-04  2.930E+02  2.943E+02
  2.800E-02  4.503E-01 -8.995E-04 -2.421E-04 -1.349E-04  2.930E+02  2.960E+02
  2.800E-02  4.587E-01 -7.871E-04 -2.228E-04 -1.580E-04  2.930E+02  2.996E+02
  2.800E-02  4.671E-01 -6.569E-04 -1.986E-04 -1.880E-04  2.930E+02  3.072E+02
  2.800E-02  4.755E-01 -4.977E-04 -1.653E-04 -2.119E-04  2.930E+02  3.223E+02
  2.800E-02  4.840E-01 -3.328E-04 -1.258E-04 -2.599E-04  2.930E+02  3.501E+02
  2.800E-02  4.924E-01 -9.577E-05 -6.127E-05 -2.975E-04  2.930E+02  3.973E+02
  2.800E-02  5.008E-01  1.258E-04  3.222E-05  1.127E-05  2.965E+02  4.626E+02
  2.800E-02  5.050E-01  0.000E+00  0.000E+00  1.127E-05  2.930E+02  2.930E+02
  3.600E-02  0.000E+00 -1.281E-03 -3.246E-04  0.000E+00  2.930E+02  2.930E+02
  3.600E-02  4.208E-03 -1.281E-03 -3.246E-04  4.693E-08  2.930E+02  2.930E+02
  3.600E-02  1.262E-02 -1.281E-03 -3.246E-04  6.297E-08  2.930E+02  2.930E+02
  3.600E-02  2.104E-02 -1.281E-03 -3.247E-04  9.486E-08  2.930E+02  2.930E+02
  3.600E-02  2.946E-02 -1.281E-03 -3.247E-04  9.229E-08  2.930E+02  2.930E+02
  3.600E-02  3.787E-02 -1.281E-03 -3.247E-04  8.309E-08  2.930E+02  2.931E+02
  3.600E-02  4.629E-02 -1.281E-03 -3.248E-04  6.708E-08  2.930E+02  2.932E+02
  3.600E-02  5.471E-02 -1.281E-03 -3.248E-04  4.859E-08  2.930E+02  2.935E+02
  3.600E-02  6.313E-02 -1.281E-03 -3.248E-04  2.866E-08  2.930E+02  2.942E+02
  3.600E-02  7.154E-02 -1.281E-03 -3.248E-04  7.953E-09  2.930E+02  2.958E+02
  3.600E-02  7.996E-02 -1.281E-03 -3.248E-04 -1.351E-08  2.930E+02  2.992E+02
  3.600E-02  8.838E-02 -1.281E-03 -3.248E-04 -3.591E-08  2.930E+02  3.063E+02
  3.600E-02  9.679E-02 -1.281E-03 -3.248E-04 -5.974E-08  2.930E+02  3.202E+02
  3.600E-02  1.052E-01 -1.281E-03 -3.248E-04 -8.549E-08  2.931E+02  3.455E+02
  3.600E-02  1.136E-01 -1.281E-03 -3.248E-04 -1.138E-07  2.930E+02  3.202E+02
  3.600E-02  1.220E-01 -1.281E-03 -3.247E-04 -1.455E-07  2.930E+02  3.063E+02
  3.600E-02  1.305E-01 -1.281E-03 -3.247E-04 -1.813E-07  2.930E+02  2.992E+02
  3.600E-02  1.389E-01 -1.281E-03 -3.247E-04 -2.222E-07  2.930E+02  2.958E+02
  3.600E-02  1.473E-01 -1.280E-03 -3.247E-04 -2.696E-07  2.930E+02  2.942E+02
  3.600E-02  1.557E-01 -1.280E-03 -3.246E-04 -3.246E-07  2.930E+02  2.935E+02
  3.600E-02  1.641E-01 -1.280E-03 -3.246E-04 -3.887E-07  2.930E+02  2.932E+02
  3.600E-02  1.725E-01 -1.280E-03 -3.245E-04 -4.639E-07  2.930E+02  2.931E+02
  3.600E-02  1.810E-01 -1.279E-03 -3.244E-04 -5.522E-07  2.930E+02  2.930E+02
  3.600E-02  1.894E-01 -1.279E-03 -3.243E-04 -6.561E-07  2.930E+02  2.930E+02
  3.600E-02  1.978E-01 -1.278E-03 -3.242E-04 -7.786E-07  2.930E+02  2.930E+02
  3.600E-02  2.062E-01 -1.278E-03 -3.241E-04 -9.231E-07  2.930E+02  2.930E+02
  3.600E-02  2.146E-01 -1.277E-03 -3.240E-04 -1.094E-06  2.930E+02  2.930E+02
  3.600E-02  2.230E-01 -1.276E-03 -3.238E-04 -1.295E-06  2.930E+02  2.930E+02
  3.600E-02  2.315E-01 -1.275E-03 -3.236E-04 -1.533E-06  2.930E+02  2.930E+02
  3.600E-02  2.399E-01 -1.274E-03 -3.234E-04 -1.815E-06  2.930E+02  2.930E+02
  3.600E-02  2.483E-01 -1.272E-03 -3.231E-04 -2.147E-06  2.930E+02  2.930E+02
  3.600E-02  2.567E-01 -1.270E-03 -3.227E-04 -2.541E-06  2.930E+02  2.930E+02
  3.600E-02  2.651E-01 -1.268E-03 -3.223E-04 -3.006E-06  2.930E+02  2.930E+02
  3.600E-02  2.735E-01 -1.266E-03 -3.219E-04 -3.556E-06  2.930E+02  2.930E+02
  3.600E-02  2.820E-01 -1.263E-03 -3.213E-04 -4.207E-06  2.930E+02  2.930E+02
  3.600E-02  2.904E-01 -1.259E-03 -3.206E-04 -4.976E-06  2.930E+02  2.930E+02
  3.600E-02  2.988E-01 -1.255E-03 -3.198E-04 -5.886E-06  2.930E+02  2.930E+02
  3.600E-02  3.072E-01 -1.250E-03 -3.189E-04 -6.962E-06  2.930E+02  2.930E+02
  3.600E-02  3.156E-01 -1.244E-03 -3.178E-04 -8.235E-06  2.930E+02  2.930E+02
  3.600E-02  3.240E-01 -1.237E-03 -3.165E-04 -9.740E-06  2.930E+02  2.930E+02
  3.600E-02  3.325E-01 -1.229E-03 -3.150E-04 -1.152E-05  2.930E+02  2.930E+02
  3.600E-02  3.409E-01 -1.220E-03 -3.132E-04 -1.362E-05  2.930E+02  2.930E+02
  3.600E-02  3.493E-01 -1.208E-03 -3.110E-04 -1.611E-05  2.930E+02  2.930E+02
  3.600E-02  3.577E-01 -1.195E-03 -3.085E-04 -1.905E-05  2.930E+02  2.930E+02
  3.600E-02  3.661E-01 -1.179E-03 -3.055E-04 -2.253E-05  2.930E+02  2.930E+02
  3.600E-02  3.745E-01 -1.160E-03 -3.019E-04 -2.663E-05  2.930E+02  2.930E+02
  3.600E-02  3.830E-01 -1.138E-03 -2.977E-04 -3.148E-05  2.930E+02  2.930E+02
  3.600E-02  3.914E-01 -1.112E-03 -2.926E-04 -3.720E-05  2.930E+02  2.930E+02
  3.600E-02  3.998E-01 -1.081E-03 -2.867E-04 -4.395E-05  2.930E+02  2.930E+02
  3.600E-02  4.082E-01 -1.044E-03 -2.796E-04 -5.190E-05  2.930E+02  2.930E+02
  3.600E-02  4.166E-01 -1.001E-03 -2.711E-04 -6.124E-05  2.930E+02  2.931E+02
  3.600E-02  4.250E-01 -9.502E-04 -2.610E-04 -7.218E-05  2.930E+02  2.932E+02
  3.600E-02  4.335E-01 -8.902E-04 -2.489E-04 -8.499E-05  2.930E+02  2.935E+02
  3.600E-02  4.419E-01 -8.195E-04 -2.342E-04 -9.979E-05  2.930E+02  2.942E+02
  3.600E-02  4.503E-01 -7.368E-04 -2.163E-04 -1.171E-04  2.930E+02  2.958E+02
  3.600E-02  4.587E-01 -6.396E-04 -1.943E-04 -1.359E-04  2.930E+02  2.994E+02
  3.600E-02  4.671E-01 -5.282E-04 -1.676E-04 -1.594E-04  2.930E+02  3.067E+02
  3.600E-02  4.755E-01 -3.945E-04 -1.325E-04 -1.765E-04  2.930E+02  3.213E+02
  3.600E-02  4.840E-01 -2.584E-04 -9.315E-05 -2.115E-04  2.930E+02  3.485E+02
  3.600E-02  4.924E-01 -6.751E-05 -3.355E-05 -2.307E-04  2.930E+02  3.949E+02
  3.600E-02  5.008E-01  9.540E-05  3.707E-05  1.233E-05  2.965E+02  4.609E+02
  3.600E-02  5.050E-01  0.000E+00  0.000E+00  1.233E-05  2.930E+02  2.930E+02
  4.400E-02  0.000E+00 -1.042E-03 -3.264E-04  0.000E+00  2.930E+02  2.930E+02
  4.400E-02  4.208E-03 -1.042E-03 -3.264E-04  2.711E-08  2.930E+02  2.930E+02
  4.400E-02  1.262E-02 -1.042E-03 -3.264E-04  4.111E-08  2.930E+02  2.930E+02
  4.400E-02  2.104E-02 -1.042E-03 -3.264E-04  6.292E-08  2.930E+02  2.930E+02
  4.400E-02  2.946E-02 -1.042E-03 -3.265E-04  6.456E-08  2.930E+02  2.930E+02
  4.400E-02  3.787E-02 -1.042E-03 -3.265E-04  6.015E-08  2.930E+02  2.931E+02
  4.400E-02  4.629E-02 -1.042E-03 -3.265E-04  4.988E-08  2.930E+02  2.932E+02
  4.400E-02  5.471E-02 -1.042E-03 -3.265E-04  3.664E-08  2.930E+02  2.935E+02
  4.400E-02  6.313E-02 -1.042E-03 -3.265E-04  2.144E-08  2.930E+02  2.942E+02
  4.400E-02  7.154E-02 -1.042E-03 -3.265E-04  5.015E-09  2.930E+02  2.958E+02
  4.400E-02  7.996E-02 -1.042E-03 -3.265E-04 -1.244E-08  2.930E+02  2.992E+02