VARIABLES="XP","YP","P","U","V","TS","TF"
ZONE T="Zone 001"I=    82 J=    12 F=POINT
  0.000E+00  0.000E+00  1.020E+05  0.000E+00  0.000E+00  2.930E+02  2.930E+02
  0.000E+00  3.156E-03  1.020E+05  0.000E+00  0.000E+00  2.930E+02  2.930E+02
  0.000E+00  9.469E-03  1.020E+05  0.000E+00  0.000E+00  2.930E+02  2.930E+02
  0.000E+00  1.578E-02  1.020E+05  0.000E+00  0.000E+00  2.930E+02  2.930E+02
  0.000E+00  2.209E-02  1.020E+05  0.000E+00  0.000E+00  2.930E+02  2.930E+02
  0.000E+00  2.841E-02  1.020E+05  0.000E+00  0.000E+00  2.930E+02  2.930E+02
  0.000E+00  3.472E-02  1.020E+05  0.000E+00  0.000E+00  2.930E+02  2.930E+02
  0.000E+00  4.103E-02  1.020E+05  0.000E+00  0.000E+00  2.930E+02  2.930E+02
  0.000E+00  4.734E-02  1.020E+05  0.000E+00  0.000E+00  2.930E+02  2.930E+02
  0.000E+00  5.366E-02  1.020E+05  0.000E+00  0.000E+00  2.931E+02  2.931E+02
  0.000E+00  5.997E-02  1.020E+05  0.000E+00  0.000E+00  2.931E+02  2.931E+02
  0.000E+00  6.628E-02  1.019E+05  0.000E+00  0.000E+00  2.932E+02  2.932E+02
  0.000E+00  7.259E-02  1.019E+05  0.000E+00  0.000E+00  2.933E+02  2.933E+02
  0.000E+00  7.891E-02  1.019E+05  0.000E+00  0.000E+00  2.935E+02  2.935E+02
  0.000E+00  8.522E-02  1.019E+05  0.000E+00  0.000E+00  2.937E+02  2.937E+02
  0.000E+00  9.153E-02  1.019E+05  0.000E+00  0.000E+00  2.941E+02  2.941E+02
  0.000E+00  9.784E-02  1.019E+05  0.000E+00  0.000E+00  2.947E+02  2.947E+02
  0.000E+00  1.042E-01  1.019E+05  0.000E+00  0.000E+00  2.955E+02  2.955E+02
  0.000E+00  1.105E-01  1.019E+05  0.000E+00  0.000E+00  2.966E+02  2.965E+02
  0.000E+00  1.168E-01  1.019E+05  0.000E+00  0.000E+00  2.981E+02  2.980E+02
  0.000E+00  1.231E-01  1.019E+05  0.000E+00  0.000E+00  3.000E+02  2.999E+02
  0.000E+00  1.294E-01  1.018E+05  0.000E+00  0.000E+00  3.026E+02  3.025E+02
  0.000E+00  1.357E-01  1.018E+05  0.000E+00  0.000E+00  3.058E+02  3.057E+02
  0.000E+00  1.420E-01  1.018E+05  0.000E+00  0.000E+00  3.099E+02  3.097E+02
  0.000E+00  1.483E-01  1.018E+05  0.000E+00  0.000E+00  3.148E+02  3.146E+02
  0.000E+00  1.547E-01  1.018E+05  0.000E+00  0.000E+00  3.206E+02  3.204E+02
  0.000E+00  1.610E-01  1.018E+05  0.000E+00  0.000E+00  3.273E+02  3.271E+02
  0.000E+00  1.673E-01  1.018E+05  0.000E+00  0.000E+00  3.350E+02  3.347E+02
  0.000E+00  1.736E-01  1.018E+05  0.000E+00  0.000E+00  3.434E+02  3.431E+02
  0.000E+00  1.799E-01  1.018E+05  0.000E+00  0.000E+00  3.525E+02  3.521E+02
  0.000E+00  1.862E-01  1.018E+05  0.000E+00  0.000E+00  3.620E+02  3.616E+02
  0.000E+00  1.925E-01  1.018E+05  0.000E+00  0.000E+00  3.717E+02  3.713E+02
  0.000E+00  1.988E-01  1.018E+05  0.000E+00  0.000E+00  3.812E+02  3.808E+02
  0.000E+00  2.052E-01  1.017E+05  0.000E+00  0.000E+00  3.903E+02  3.899E+02
  0.000E+00  2.115E-01  1.017E+05  0.000E+00  0.000E+00  3.986E+02  3.983E+02
  0.000E+00  2.178E-01  1.017E+05  0.000E+00  0.000E+00  4.058E+02  4.056E+02
  0.000E+00  2.241E-01  1.017E+05  0.000E+00  0.000E+00  4.118E+02  4.115E+02
  0.000E+00  2.304E-01  1.017E+05  0.000E+00  0.000E+00  4.161E+02  4.160E+02
  0.000E+00  2.367E-01  1.017E+05  0.000E+00  0.000E+00  4.188E+02  4.187E+02
  0.000E+00  2.430E-01  1.017E+05  0.000E+00  0.000E+00  4.197E+02  4.197E+02
  0.000E+00  2.493E-01  1.017E+05  0.000E+00  0.000E+00  4.189E+02  4.189E+02
  0.000E+00  2.557E-01  1.017E+05  0.000E+00  0.000E+00  4.164E+02  4.165E+02
  0.000E+00  2.620E-01  1.017E+05  0.000E+00  0.000E+00  4.124E+02  4.125E+02
  0.000E+00  2.683E-01  1.017E+05  0.000E+00  0.000E+00  4.070E+02  4.072E+02
  0.000E+00  2.746E-01  1.016E+05  0.000E+00  0.000E+00  4.005E+02  4.007E+02
  0.000E+00  2.809E-01  1.016E+05  0.000E+00  0.000E+00  3.931E+02  3.934E+02
  0.000E+00  2.872E-01  1.016E+05  0.000E+00  0.000E+00  3.852E+02  3.855E+02
  0.000E+00  2.935E-01  1.016E+05  0.000E+00  0.000E+00  3.769E+02  3.772E+02
  0.000E+00  2.998E-01  1.016E+05  0.000E+00  0.000E+00  3.685E+02  3.689E+02
  0.000E+00  3.062E-01  1.016E+05  0.000E+00  0.000E+00  3.602E+02  3.606E+02
  0.000E+00  3.125E-01  1.016E+05  0.000E+00  0.000E+00  3.523E+02  3.526E+02
  0.000E+00  3.188E-01  1.016E+05  0.000E+00  0.000E+00  3.447E+02  3.450E+02
  0.000E+00  3.251E-01  1.016E+05  0.000E+00  0.000E+00  3.376E+02  3.379E+02
  0.000E+00  3.314E-01  1.016E+05  0.000E+00  0.000E+00  3.312E+02  3.315E+02
  0.000E+00  3.377E-01  1.016E+05  0.000E+00  0.000E+00  3.254E+02  3.256E+02
  0.000E+00  3.440E-01  1.016E+05  0.000E+00  0.000E+00  3.203E+02  3.205E+02
  0.000E+00  3.503E-01  1.015E+05  0.000E+00  0.000E+00  3.157E+02  3.159E+02
  0.000E+00  3.567E-01  1.015E+05  0.000E+00  0.000E+00  3.118E+02  3.120E+02
  0.000E+00  3.630E-01  1.015E+05  0.000E+00  0.000E+00  3.085E+02  3.086E+02
  0.000E+00  3.693E-01  1.015E+05  0.000E+00  0.000E+00  3.056E+02  3.057E+02
  0.000E+00  3.756E-01  1.015E+05  0.000E+00  0.000E+00  3.032E+02  3.033E+02
  0.000E+00  3.819E-01  1.015E+05  0.000E+00  0.000E+00  3.013E+02  3.013E+02
  0.000E+00  3.882E-01  1.015E+05  0.000E+00  0.000E+00  2.996E+02  2.997E+02
  0.000E+00  3.945E-01  1.015E+05  0.000E+00  0.000E+00  2.983E+02  2.983E+02
  0.000E+00  4.008E-01  1.015E+05  0.000E+00  0.000E+00  2.972E+02  2.973E+02
  0.000E+00  4.072E-01  1.015E+05  0.000E+00  0.000E+00  2.963E+02  2.964E+02
  0.000E+00  4.135E-01  1.015E+05  0.000E+00  0.000E+00  2.956E+02  2.957E+02
  0.000E+00  4.198E-01  1.014E+05  0.000E+00  0.000E+00  2.951E+02  2.951E+02
  0.000E+00  4.261E-01  1.014E+05  0.000E+00  0.000E+00  2.947E+02  2.947E+02
  0.000E+00  4.324E-01  1.014E+05  0.000E+00  0.000E+00  2.943E+02  2.943E+02
  0.000E+00  4.387E-01  1.014E+05  0.000E+00  0.000E+00  2.940E+02  2.941E+02
  0.000E+00  4.450E-01  1.014E+05  0.000E+00  0.000E+00  2.938E+02  2.938E+02
  0.000E+00  4.513E-01  1.014E+05  0.000E+00  0.000E+00  2.937E+02  2.937E+02
  0.000E+00  4.577E-01  1.014E+05  0.000E+00  0.000E+00  2.935E+02  2.935E+02
  0.000E+00  4.640E-01  1.014E+05  0.000E+00  0.000E+00  2.934E+02  2.934E+02
  0.000E+00  4.703E-01  1.014E+05  0.000E+00  0.000E+00  2.933E+02  2.934E+02
  0.000E+00  4.766E-01  1.014E+05  0.000E+00  0.000E+00  2.933E+02  2.933E+02
  0.000E+00  4.829E-01  1.014E+05  0.000E+00  0.000E+00  2.932E+02  2.932E+02
  0.000E+00  4.892E-01  1.013E+05  0.000E+00  0.000E+00  2.932E+02  2.932E+02
  0.000E+00  4.955E-01  1.013E+05  0.000E+00  0.000E+00  2.932E+02  2.932E+02
  0.000E+00  5.018E-01  1.013E+05  0.000E+00  0.000E+00  2.931E+02  2.931E+02
  0.000E+00  5.050E-01  1.013E+05  0.000E+00  0.000E+00  2.931E+02  2.931E+02
  1.417E-02  0.000E+00  1.021E+05 -2.456E-08  6.500E-02  2.930E+02  2.930E+02
  1.417E-02  3.156E-03  1.020E+05 -2.456E-08  6.360E-02  2.930E+02  2.930E+02
  1.417E-02  9.469E-03  1.020E+05 -1.471E-08  6.308E-02  2.930E+02  2.930E+02
  1.417E-02  1.578E-02  1.020E+05 -2.705E-08  6.200E-02  2.930E+02  2.930E+02
  1.417E-02  2.209E-02  1.020E+05 -9.984E-09  6.097E-02  2.930E+02  2.930E+02
  1.417E-02  2.841E-02  1.020E+05 -7.842E-09  6.007E-02  2.930E+02  2.930E+02
  1.417E-02  3.472E-02  1.020E+05 -4.497E-09  5.930E-02  2.930E+02  2.930E+02
  1.417E-02  4.103E-02  1.020E+05 -2.708E-09  5.864E-02  2.930E+02  2.930E+02
  1.417E-02  4.734E-02  1.020E+05 -1.543E-09  5.807E-02  2.930E+02  2.930E+02
  1.417E-02  5.366E-02  1.020E+05 -1.127E-09  5.757E-02  2.931E+02  2.931E+02
  1.417E-02  5.997E-02  1.020E+05 -1.012E-09  5.714E-02  2.931E+02  2.931E+02
  1.417E-02  6.628E-02  1.019E+05 -6.323E-10  5.677E-02  2.932E+02  2.932E+02
  1.417E-02  7.259E-02  1.019E+05 -7.592E-10  5.646E-02  2.933E+02  2.933E+02
  1.417E-02  7.891E-02  1.019E+05 -1.243E-09  5.619E-02  2.935E+02  2.935E+02
  1.417E-02  8.522E-02  1.019E+05 -1.716E-09  5.594E-02  2.937E+02  2.937E+02
  1.417E-02  9.153E-02  1.019E+05 -2.383E-09  5.573E-02  2.941E+02  2.941E+02
  1.417E-02  9.784E-02  1.019E+05 -2.448E-09  5.554E-02  2.947E+02  2.947E+02
  1.417E-02  1.042E-01  1.019E+05 -2.584E-09  5.538E-02  2.955E+02  2.955E+02
  1.417E-02  1.105E-01  1.019E+05 -2.578E-09  5.524E-02  2.966E+02  2.965E+02
  1.417E-02  1.168E-01  1.019E+05 -2.546E-09  5.511E-02  2.981E+02  2.980E+02
  1.417E-02  1.231E-01  1.019E+05 -2.655E-09  5.499E-02  3.000E+02  2.999E+02
  1.417E-02  1.294E-01  1.018E+05 -2.982E-09  5.490E-02  3.026E+02  3.025E+02
  1.417E-02  1.357E-01  1.018E+05 -3.280E-09  5.481E-02  3.058E+02  3.057E+02
  1.417E-02  1.420E-01  1.018E+05 -3.165E-09  5.474E-02  3.099E+02  3.097E+02
  1.417E-02  1.483E-01  1.018E+05 -2.880E-09  5.468E-02  3.148E+02  3.146E+02
  1.417E-02  1.547E-01  1.018E+05 -2.615E-09  5.462E-02  3.206E+02  3.204E+02
  1.417E-02  1.610E-01  1.018E+05 -2.280E-09  5.458E-02  3.273E+02  3.271E+02
  1.417E-02  1.673E-01  1.018E+05 -2.268E-09  5.454E-02  3.350E+02  3.347E+02
  1.417E-02  1.736E-01  1.018E+05 -2.353E-09  5.452E-02  3.434E+02  3.431E+02
  1.417E-02  1.799E-01  1.018E+05 -2.093E-09  5.450E-02  3.525E+02  3.521E+02
  1.417E-02  1.862E-01  1.018E+05 -2.135E-09  5.448E-02  3.620E+02  3.616E+02
  1.417E-02  1.925E-01  1.018E+05 -2.335E-09  5.446E-02  3.717E+02  3.713E+02
  1.417E-02  1.988E-01  1.018E+05 -2.061E-09  5.445E-02  3.812E+02  3.808E+02
  1.417E-02  2.052E-01  1.017E+05 -1.197E-09  5.444E-02  3.903E+02  3.899E+02
  1.417E-02  2.115E-01  1.017E+05 -1.622E-10  5.442E-02  3.986E+02  3.983E+02
  1.417E-02  2.178E-01  1.017E+05  3.045E-10  5.442E-02  4.058E+02  4.056E+02
  1.417E-02  2.241E-01  1.017E+05  9.207E-10  5.441E-02  4.118E+02  4.115E+02
  1.417E-02  2.304E-01  1.017E+05  2.205E-09  5.439E-02  4.161E+02  4.160E+02
  1.417E-02  2.367E-01  1.017E+05  1.502E-09  5.437E-02  4.188E+02  4.187E+02
  1.417E-02  2.430E-01  1.017E+05  3.864E-10  5.435E-02  4.197E+02  4.197E+02
  1.417E-02  2.493E-01  1.017E+05  2.199E-09  5.432E-02  4.189E+02  4.189E+02
  1.417E-02  2.557E-01  1.017E+05  3.536E-09  5.428E-02  4.164E+02  4.165E+02
  1.417E-02  2.620E-01  1.017E+05  2.960E-09  5.425E-02  4.124E+02  4.125E+02
  1.417E-02  2.683E-01  1.017E+05  2.721E-09  5.422E-02  4.070E+02  4.072E+02
  1.417E-02  2.746E-01  1.016E+05  2.885E-09  5.418E-02  4.005E+02  4.007E+02
  1.417E-02  2.809E-01  1.016E+05  2.167E-09  5.413E-02  3.931E+02  3.934E+02
  1.417E-02  2.872E-01  1.016E+05  1.171E-09  5.409E-02  3.852E+02  3.855E+02
  1.417E-02  2.935E-01  1.016E+05  1.567E-09  5.405E-02  3.769E+02  3.772E+02
  1.417E-02  2.998E-01  1.016E+05  2.189E-09  5.399E-02  3.685E+02  3.689E+02
  1.417E-02  3.062E-01  1.016E+05  2.152E-09  5.394E-02  3.602E+02  3.606E+02
  1.417E-02  3.125E-01  1.016E+05  1.763E-09  5.389E-02  3.523E+02  3.526E+02
  1.417E-02  3.188E-01  1.016E+05  1.930E-09  5.383E-02  3.447E+02  3.450E+02
  1.417E-02  3.251E-01  1.016E+05  1.954E-09  5.379E-02  3.376E+02  3.379E+02
  1.417E-02  3.314E-01  1.016E+05  1.501E-09  5.374E-02  3.312E+02  3.315E+02
  1.417E-02  3.377E-01  1.016E+05  1.147E-09  5.369E-02  3.254E+02  3.256E+02
  1.417E-02  3.440E-01  1.016E+05  1.624E-09  5.364E-02  3.203E+02  3.205E+02
  1.417E-02  3.503E-01  1.015E+05  1.742E-09  5.360E-02  3.157E+02  3.159E+02
  1.417E-02  3.567E-01  1.015E+05  1.025E-09  5.356E-02  3.118E+02  3.120E+02
  1.417E-02  3.630E-01  1.015E+05  5.458E-10  5.352E-02  3.085E+02  3.086E+02
  1.417E-02  3.693E-01  1.015E+05  5.038E-10  5.349E-02  3.056E+02  3.057E+02
  1.417E-02  3.756E-01  1.015E+05  1.702E-10  5.346E-02  3.032E+02  3.033E+02
  1.417E-02  3.819E-01  1.015E+05  1.634E-10  5.343E-02  3.013E+02  3.013E+02
  1.417E-02  3.882E-01  1.015E+05  2.586E-10  5.341E-02  2.996E+02  2.997E+02
  1.417E-02  3.945E-01  1.015E+05 -7.868E-11  5.338E-02  2.983E+02  2.983E+02
  1.417E-02  4.008E-01  1.015E+05  7.428E-11  5.336E-02  2.972E+02  2.973E+02
  1.417E-02  4.072E-01  1.015E+05 -1.273E-10  5.334E-02  2.963E+02  2.964E+02
  1.417E-02  4.135E-01  1.015E+05 -3.266E-10  5.333E-02  2.956E+02  2.957E+02
  1.417E-02  4.198E-01  1.014E+05 -1.693E-10  5.332E-02  2.951E+02  2.951E+02
  1.417E-02  4.261E-01  1.014E+05  4.443E-13  5.331E-02  2.947E+02  2.947E+02
  1.417E-02  4.324E-01  1.014E+05 -1.803E-11  5.329E-02  2.943E+02  2.943E+02
  1.417E-02  4.387E-01  1.014E+05  3.439E-11  5.329E-02  2.940E+02  2.941E+02
  1.417E-02  4.450E-01  1.014E+05 -5.055E-10  5.328E-02  2.938E+02  2.938E+02
  1.417E-02  4.513E-01  1.014E+05 -1.078E-09  5.328E-02  2.937E+02  2.937E+02
  1.417E-02  4.577E-01  1.014E+05 -1.101E-09  5.327E-02  2.935E+02  2.935E+02
  1.417E-02  4.640E-01  1.014E+05 -7.024E-10  5.327E-02  2.934E+02  2.934E+02
  1.417E-02  4.703E-01  1.014E+05 -5.076E-10  5.326E-02  2.933E+02  2.934E+02
  1.417E-02  4.766E-01  1.014E+05 -7.002E-10  5.325E-02  2.933E+02  2.933E+02
  1.417E-02  4.829E-01  1.014E+05 -5.642E-10  5.325E-02  2.932E+02  2.932E+02
  1.417E-02  4.892E-01  1.013E+05 -4.615E-10  5.325E-02  2.932E+02  2.932E+02
  1.417E-02  4.955E-01  1.013E+05 -4.556E-10  5.325E-02  2.932E+02  2.932E+02
  1.417E-02  5.018E-01  1.013E+05 -5.111E-10  5.325E-02  2.931E+02  2.931E+02
  1.417E-02  5.050E-01  1.013E+05 -5.111E-10  5.325E-02  2.931E+02  2.930E+02
  4.252E-02  0.000E+00  1.021E+05 -8.297E-09  6.500E-02  2.930E+02  2.930E+02
  4.252E-02  3.156E-03  1.020E+05 -8.297E-09  6.360E-02  2.930E+02  2.930E+02
  4.252E-02  9.469E-03  1.020E+05  1.067E-09  6.308E-02  2.930E+02  2.930E+02
  4.252E-02  1.578E-02  1.020E+05 -1.238E-08  6.200E-02  2.930E+02  2.930E+02
  4.252E-02  2.209E-02  1.020E+05  3.409E-09  6.097E-02  2.930E+02  2.930E+02
  4.252E-02  2.841E-02  1.020E+05  3.729E-09  6.007E-02  2.930E+02  2.930E+02
  4.252E-02  3.472E-02  1.020E+05  5.094E-09  5.930E-02  2.930E+02  2.930E+02
  4.252E-02  4.103E-02  1.020E+05  5.223E-09  5.864E-02  2.930E+02  2.930E+02
  4.252E-02  4.734E-02  1.020E+05  4.818E-09  5.807E-02  2.930E+02  2.930E+02
  4.252E-02  5.366E-02  1.020E+05  3.879E-09  5.757E-02  2.931E+02  2.931E+02
  4.252E-02  5.997E-02  1.020E+05  3.136E-09  5.714E-02  2.931E+02  2.931E+02
  4.252E-02  6.628E-02  1.019E+05  2.112E-09  5.677E-02  2.932E+02  2.932E+02
  4.252E-02  7.259E-02  1.019E+05  2.216E-10  5.646E-02  2.933E+02  2.933E+02
  4.252E-02  7.891E-02  1.019E+05 -1.463E-09  5.619E-02  2.935E+02  2.935E+02
  4.252E-02  8.522E-02  1.019E+05 -3.213E-09  5.594E-02  2.937E+02  2.937E+02
  4.252E-02  9.153E-02  1.019E+05 -4.657E-09  5.573E-02  2.941E+02  2.941E+02
  4.252E-02  9.784E-02  1.019E+05 -5.498E-09  5.554E-02  2.947E+02  2.947E+02
  4.252E-02  1.042E-01  1.019E+05 -6.562E-09  5.538E-02  2.955E+02  2.955E+02
  4.252E-02  1.105E-01  1.019E+05 -7.549E-09  5.524E-02  2.966E+02  2.965E+02
  4.252E-02  1.168E-01  1.019E+05 -8.013E-09  5.511E-02  2.981E+02  2.980E+02
  4.252E-02  1.231E-01  1.019E+05 -8.412E-09  5.499E-02  3.000E+02  2.999E+02
  4.252E-02  1.294E-01  1.018E+05 -9.321E-09  5.490E-02  3.026E+02  3.025E+02
  4.252E-02  1.357E-01  1.018E+05 -1.001E-08  5.481E-02  3.058E+02  3.057E+02
  4.252E-02  1.420E-01  1.018E+05 -9.791E-09  5.474E-02  3.099E+02  3.097E+02
  4.252E-02  1.483E-01  1.018E+05 -9.247E-09  5.468E-02  3.148E+02  3.146E+02
  4.252E-02  1.547E-01  1.018E+05 -8.364E-09  5.462E-02  3.206E+02  3.204E+02
  4.252E-02  1.610E-01  1.018E+05 -7.435E-09  5.458E-02  3.273E+02  3.271E+02
  4.252E-02  1.673E-01  1.018E+05 -6.942E-09  5.454E-02  3.350E+02  3.347E+02
  4.252E-02  1.736E-01  1.018E+05 -6.271E-09  5.452E-02  3.434E+02  3.431E+02
  4.252E-02  1.799E-01  1.018E+05 -5.932E-09  5.450E-02  3.525E+02  3.521E+02
  4.252E-02  1.862E-01  1.018E+05 -7.343E-09  5.448E-02  3.620E+02  3.616E+02
  4.252E-02  1.925E-01  1.018E+05 -1.113E-08  5.446E-02  3.717E+02  3.713E+02
  4.252E-02  1.988E-01  1.018E+05 -1.363E-08  5.445E-02  3.812E+02  3.808E+02
  4.252E-02  2.052E-01  1.017E+05 -9.604E-09  5.444E-02  3.903E+02  3.899E+02
  4.252E-02  2.115E-01  1.017E+05 -3.150E-09  5.442E-02  3.986E+02  3.983E+02
  4.252E-02  2.178E-01  1.017E+05  1.472E-10  5.442E-02  4.058E+02  4.056E+02
  4.252E-02  2.241E-01  1.017E+05  2.370E-09  5.441E-02  4.118E+02  4.115E+02
  4.252E-02  2.304E-01  1.017E+05  4.870E-09  5.439E-02  4.161E+02  4.160E+02
  4.252E-02  2.367E-01  1.017E+05  4.895E-09  5.437E-02  4.188E+02  4.187E+02
  4.252E-02  2.430E-01  1.017E+05  5.038E-09  5.435E-02  4.197E+02  4.197E+02
  4.252E-02  2.493E-01  1.017E+05  8.805E-09  5.432E-02  4.189E+02  4.189E+02
  4.252E-02  2.557E-01  1.017E+05  1.165E-08  5.428E-02  4.164E+02  4.165E+02
  4.252E-02  2.620E-01  1.017E+05  1.081E-08  5.425E-02  4.124E+02  4.125E+02
  4.252E-02  2.683E-01  1.017E+05  1.407E-08  5.422E-02  4.070E+02  4.072E+02
  4.252E-02  2.746E-01  1.016E+05  1.791E-08  5.418E-02  4.005E+02  4.007E+02
  4.252E-02  2.809E-01  1.016E+05 -5.458E-09  5.413E-02  3.931E+02  3.934E+02
  4.252E-02  2.872E-01  1.016E+05 -2.853E-08  5.409E-02  3.852E+02  3.855E+02
  4.252E-02  2.935E-01  1.016E+05 -5.656E-09  5.405E-02  3.769E+02  3.772E+02
  4.252E-02  2.998E-01  1.016E+05  1.914E-08  5.399E-02  3.685E+02  3.689E+02
  4.252E-02  3.062E-01  1.016E+05  1.715E-08  5.394E-02  3.602E+02  3.606E+02
  4.252E-02  3.125E-01  1.016E+05  1.373E-08  5.389E-02  3.523E+02  3.526E+02
  4.252E-02  3.188E-01  1.016E+05  1.339E-08  5.383E-02  3.447E+02  3.450E+02
  4.252E-02  3.251E-01  1.016E+05  1.205E-08  5.379E-02  3.376E+02  3.379E+02
  4.252E-02  3.314E-01  1.016E+05  1.086E-08  5.374E-02  3.312E+02  3.315E+02
  4.252E-02  3.377E-01  1.016E+05  9.634E-09  5.369E-02  3.254E+02  3.256E+02
  4.252E-02  3.440E-01  1.016E+05  9.119E-09  5.364E-02  3.203E+02  3.205E+02
  4.252E-02  3.503E-01  1.015E+05  8.503E-09  5.360E-02  3.157E+02  3.159E+02
  4.252E-02  3.567E-01  1.015E+05  7.422E-09  5.356E-02  3.118E+02  3.120E+02
  4.252E-02  3.630E-01  1.015E+05  6.661E-09  5.352E-02  3.085E+02  3.086E+02
  4.252E-02  3.693E-01  1.015E+05  6.148E-09  5.349E-02  3.056E+02  3.057E+02
  4.252E-02  3.756E-01  1.015E+05  5.336E-09  5.346E-02  3.032E+02  3.033E+02
  4.252E-02  3.819E-01  1.015E+05  5.092E-09  5.343E-02  3.013E+02  3.013E+02
  4.252E-02  3.882E-01  1.015E+05  5.039E-09  5.341E-02  2.996E+02  2.997E+02
  4.252E-02  3.945E-01  1.015E+05  4.377E-09  5.338E-02  2.983E+02  2.983E+02
  4.252E-02  4.008E-01  1.015E+05  4.318E-09  5.336E-02  2.972E+02  2.973E+02
  4.252E-02  4.072E-01  1.015E+05  3.438E-09  5.334E-02  2.963E+02  2.964E+02
  4.252E-02  4.135E-01  1.015E+05  3.071E-09  5.333E-02  2.956E+02  2.957E+02
  4.252E-02  4.198E-01  1.014E+05  2.600E-09  5.332E-02  2.951E+02  2.951E+02
  4.252E-02  4.261E-01  1.014E+05  2.182E-09  5.331E-02  2.947E+02  2.947E+02
  4.252E-02  4.324E-01  1.014E+05  2.052E-09  5.329E-02  2.943E+02  2.943E+02
  4.252E-02  4.387E-01  1.014E+05  1.403E-09  5.329E-02  2.940E+02  2.941E+02
  4.252E-02  4.450E-01  1.014E+05  4.160E-10  5.328E-02  2.938E+02  2.938E+02
  4.252E-02  4.513E-01  1.014E+05 -4.743E-11  5.328E-02  2.937E+02  2.937E+02
  4.252E-02  4.577E-01  1.014E+05 -1.821E-10  5.327E-02  2.935E+02  2.935E+02
  4.252E-02  4.640E-01  1.014E+05 -2.331E-10  5.327E-02  2.934E+02  2.934E+02
  4.252E-02  4.703E-01  1.014E+05 -6.094E-10  5.326E-02  2.933E+02  2.934E+02
  4.252E-02  4.766E-01  1.014E+05 -1.014E-09  5.325E-02  2.933E+02  2.933E+02
  4.252E-02  4.829E-01  1.014E+05 -7.003E-10  5.325E-02  2.932E+02  2.932E+02
  4.252E-02  4.892E-01  1.013E+05 -4.044E-10  5.325E-02  2.932E+02  2.932E+02
  4.252E-02  4.955E-01  1.013E+05 -5.765E-10  5.325E-02  2.932E+02  2.932E+02
  4.252E-02  5.018E-01  1.013E+05 -6.815E-10  5.325E-02  2.931E+02  2.931E+02
  4.252E-02  5.050E-01  1.013E+05 -6.815E-10  5.325E-02  2.931E+02  2.930E+02
  7.087E-02  0.000E+00  1.021E+05  1.666E-08  6.500E-02  2.930E+02  2.930E+02
  7.087E-02  3.156E-03  1.020E+05  1.666E-08  6.360E-02  2.930E+02  2.930E+02
  7.087E-02  9.469E-03  1.020E+05  1.730E-08  6.308E-02  2.930E+02  2.930E+02
  7.087E-02  1.578E-02  1.020E+05  1.662E-08  6.200E-02  2.930E+02  2.930E+02
  7.087E-02  2.209E-02  1.020E+05  1.532E-08  6.097E-02  2.930E+02  2.930E+02
  7.087E-02  2.841E-02  1.020E+05  1.321E-08  6.007E-02  2.930E+02  2.930E+02
  7.087E-02  3.472E-02  1.020E+05  1.082E-08  5.930E-02  2.930E+02  2.930E+02
  7.087E-02  4.103E-02  1.020E+05  8.560E-09  5.864E-02  2.930E+02  2.930E+02
  7.087E-02  4.734E-02  1.020E+05  6.110E-09  5.807E-02  2.930E+02  2.930E+02
  7.087E-02  5.366E-02  1.020E+05  3.975E-09  5.757E-02  2.931E+02  2.931E+02
  7.087E-02  5.997E-02  1.020E+05  1.905E-09  5.714E-02  2.931E+02  2.931E+02
  7.087E-02  6.628E-02  1.019E+05 -6.156E-10  5.677E-02  2.932E+02  2.932E+02
  7.087E-02  7.259E-02  1.019E+05 -3.036E-09  5.646E-02  2.933E+02  2.933E+02
  7.087E-02  7.891E-02  1.019E+05 -4.752E-09  5.619E-02  2.935E+02  2.935E+02
  7.087E-02  8.522E-02  1.019E+05 -6.306E-09  5.594E-02  2.937E+02  2.937E+02
  7.087E-02  9.153E-02  1.019E+05 -7.800E-09  5.573E-02  2.941E+02  2.941E+02
  7.087E-02  9.784E-02  1.019E+05 -9.816E-09  5.554E-02  2.947E+02  2.947E+02
  7.087E-02  1.042E-01  1.019E+05 -1.153E-08  5.538E-02  2.955E+02  2.955E+02
  7.087E-02  1.105E-01  1.019E+05 -1.351E-08  5.524E-02  2.966E+02  2.965E+02
  7.087E-02  1.168E-01  1.019E+05 -1.473E-08  5.511E-02  2.981E+02  2.980E+02
  7.087E-02  1.231E-01  1.019E+05 -1.560E-08  5.499E-02  3.000E+02  2.999E+02
  7.087E-02  1.294E-01  1.018E+05 -1.633E-08  5.490E-02  3.026E+02  3.025E+02
  7.087E-02  1.357E-01  1.018E+05 -1.658E-08  5.481E-02  3.058E+02  3.057E+02
  7.087E-02  1.420E-01  1.018E+05 -1.660E-08  5.474E-02  3.099E+02  3.097E+02
  7.087E-02  1.483E-01  1.018E+05 -1.641E-08  5.468E-02  3.148E+02  3.146E+02
  7.087E-02  1.547E-01  1.018E+05 -1.538E-08  5.462E-02  3.206E+02  3.204E+02
  7.087E-02  1.610E-01  1.018E+05 -1.461E-08  5.458E-02  3.273E+02  3.271E+02
  7.087E-02  1.673E-01  1.018E+05 -1.405E-08  5.454E-02  3.350E+02  3.347E+02
  7.087E-02  1.736E-01  1.018E+05 -1.291E-08  5.452E-02  3.434E+02  3.431E+02
  7.087E-02  1.799E-01  1.018E+05 -1.232E-08  5.450E-02  3.525E+02  3.521E+02
  7.087E-02  1.862E-01  1.018E+05 -1.368E-08  5.448E-02  3.620E+02  3.616E+02
  7.087E-02  1.925E-01  1.018E+05 -1.756E-08  5.446E-02  3.717E+02  3.713E+02
  7.087E-02  1.988E-01  1.018E+05 -1.993E-08  5.445E-02  3.812E+02  3.808E+02
  7.087E-02  2.052E-01  1.017E+05 -1.582E-08  5.444E-02  3.903E+02  3.899E+02
  7.087E-02  2.115E-01  1.017E+05 -9.338E-09  5.442E-02  3.986E+02  3.983E+02
  7.087E-02  2.178E-01  1.017E+05 -4.887E-09  5.442E-02  4.058E+02  4.056E+02
  7.087E-02  2.241E-01  1.017E+05 -2.207E-09  5.441E-02  4.118E+02  4.115E+02
  7.087E-02  2.304E-01  1.017E+05 -2.441E-10  5.439E-02  4.161E+02  4.159E+02
  7.087E-02  2.367E-01  1.017E+05  1.573E-09  5.437E-02  4.188E+02  4.187E+02
  7.087E-02  2.430E-01  1.017E+05  3.748E-09  5.435E-02  4.197E+02  4.197E+02
  7.087E-02  2.493E-01  1.017E+05  6.417E-09  5.432E-02  4.189E+02  4.189E+02
  7.087E-02  2.557E-01  1.017E+05  9.142E-09  5.428E-02  4.164E+02  4.165E+02
  7.087E-02  2.620E-01  1.017E+05  9.929E-09  5.425E-02  4.124E+02  4.125E+02
  7.087E-02  2.683E-01  1.017E+05  1.420E-08  5.422E-02  4.070E+02  4.072E+02
  7.087E-02  2.746E-01  1.016E+05  1.817E-08  5.418E-02  4.005E+02  4.007E+02
  7.087E-02  2.809E-01  1.016E+05 -4.772E-09  5.413E-02  3.931E+02  3.934E+02
  7.087E-02  2.872E-01  1.016E+05 -2.674E-08  5.409E-02  3.852E+02  3.855E+02
  7.087E-02  2.935E-01  1.016E+05 -3.051E-09  5.404E-02  3.769E+02  3.772E+02
  7.087E-02  2.998E-01  1.016E+05  2.255E-08  5.399E-02  3.685E+02  3.689E+02
  7.087E-02  3.062E-01  1.016E+05  2.096E-08  5.394E-02  3.602E+02  3.606E+02
  7.087E-02  3.125E-01  1.016E+05  1.830E-08  5.389E-02  3.523E+02  3.526E+02
  7.087E-02  3.188E-01  1.016E+05  1.822E-08  5.383E-02  3.447E+02  3.450E+02
  7.087E-02  3.251E-01  1.016E+05  1.657E-08  5.379E-02  3.376E+02  3.379E+02
  7.087E-02  3.314E-01  1.016E+05  1.560E-08  5.374E-02  3.312E+02  3.315E+02
  7.087E-02  3.377E-01  1.016E+05  1.400E-08  5.369E-02  3.254E+02  3.256E+02
  7.087E-02  3.440E-01  1.016E+05  1.181E-08  5.364E-02  3.203E+02  3.205E+02
  7.087E-02  3.503E-01  1.015E+05  9.883E-09  5.360E-02  3.157E+02  3.159E+02
  7.087E-02  3.567E-01  1.015E+05  7.521E-09  5.356E-02  3.118E+02  3.120E+02
  7.087E-02  3.630E-01  1.015E+05  4.368E-09  5.352E-02  3.085E+02  3.086E+02
  7.087E-02  3.693E-01  1.015E+05 -5.456E-10  5.349E-02  3.056E+02  3.057E+02
  7.087E-02  3.756E-01  1.015E+05 -3.959E-09  5.346E-02  3.032E+02  3.033E+02
  7.087E-02  3.819E-01  1.015E+05 -2.019E-08  5.343E-02  3.013E+02  3.013E+02
  7.087E-02  3.882E-01  1.015E+05 -7.252E-09  5.341E-02  2.996E+02  2.997E+02
  7.087E-02  3.945E-01  1.015E+05 -7.513E-09  5.338E-02  2.983E+02  2.983E+02
  7.087E-02  4.008E-01  1.015E+05 -6.499E-09  5.336E-02  2.972E+02  2.973E+02
  7.087E-02  4.072E-01  1.015E+05 -8.547E-09  5.334E-02  2.963E+02  2.964E+02
  7.087E-02  4.135E-01  1.015E+05 -9.741E-09  5.333E-02  2.956E+02  2.957E+02
  7.087E-02  4.198E-01  1.014E+05 -2.413E-08  5.332E-02  2.951E+02  2.951E+02
  7.087E-02  4.261E-01  1.014E+05 -9.222E-09  5.331E-02  2.947E+02  2.947E+02
  7.087E-02  4.324E-01  1.014E+05 -6.967E-09  5.329E-02  2.943E+02  2.943E+02
  7.087E-02  4.387E-01  1.014E+05 -3.918E-09  5.329E-02  2.940E+02  2.941E+02
  7.087E-02  4.450E-01  1.014E+05 -2.330E-09  5.328E-02  2.938E+02  2.938E+02
  7.087E-02  4.513E-01  1.014E+05 -9.226E-10  5.328E-02  2.937E+02  2.937E+02
  7.087E-02  4.577E-01  1.014E+05 -1.626E-10  5.327E-02  2.935E+02  2.935E+02
  7.087E-02  4.640E-01  1.014E+05  1.538E-10  5.327E-02  2.934E+02  2.934E+02
  7.087E-02  4.703E-01  1.014E+05  2.412E-10  5.326E-02  2.934E+02  2.934E+02
  7.087E-02  4.766E-01  1.014E+05  7.110E-10  5.325E-02  2.933E+02  2.933E+02
  7.087E-02  4.829E-01  1.014E+05  8.291E-10  5.325E-02  2.932E+02  2.932E+02
  7.087E-02  4.892E-01  1.013E+05  6.709E-10  5.325E-02  2.932E+02  2.932E+02
  7.087E-02  4.955E-01  1.013E+05  5.450E-10  5.325E-02  2.932E+02  2.932E+02
  7.087E-02  5.018E-01  1.013E+05  4.603E-10  5.325E-02  2.931E+02  2.931E+02
  7.087E-02  5.050E-01  1.013E+05  4.603E-10  5.325E-02  2.931E+02  2.930E+02
  9.922E-02  0.000E+00  1.021E+05  4.782E-09  6.500E-02  2.930E+02  2.930E+02
  9.922E-02  3.156E-03  1.020E+05  4.782E-09  6.360E-02  2.930E+02  2.930E+02
  9.922E-02  9.469E-03  1.020E+05  4.878E-09  6.308E-02  2.930E+02  2.930E+02
  9.922E-02  1.578E-02  1.020E+05  4.613E-09  6.200E-02  2.930E+02  2.930E+02
  9.922E-02  2.209E-02  1.020E+05  4.470E-09  6.097E-02  2.930E+02  2.930E+02
  9.922E-02  2.841E-02  1.020E+05  4.352E-09  6.007E-02  2.930E+02  2.930E+02
  9.922E-02  3.472E-02  1.020E+05  4.339E-09  5.930E-02  2.930E+02  2.930E+02
  9.922E-02  4.103E-02  1.020E+05  4.485E-09  5.864E-02  2.930E+02  2.930E+02
  9.922E-02  4.734E-02  1.020E+05  5.260E-09  5.807E-02  2.930E+02  2.930E+02
  9.922E-02  5.366E-02  1.020E+05  7.227E-09  5.757E-02  2.931E+02  2.931E+02
  9.922E-02  5.997E-02  1.020E+05  8.148E-09  5.714E-02  2.931E+02  2.931E+02
  9.922E-02  6.628E-02  1.019E+05  2.195E-08  5.677E-02  2.932E+02  2.932E+02
  9.922E-02  7.259E-02  1.019E+05  6.938E-09  5.646E-02  2.933E+02  2.933E+02
  9.922E-02  7.891E-02  1.019E+05  5.048E-09  5.619E-02  2.935E+02  2.935E+02
  9.922E-02  8.522E-02  1.019E+05  1.387E-09  5.594E-02  2.937E+02  2.937E+02
  9.922E-02  9.153E-02  1.019E+05 -1.645E-09  5.573E-02  2.941E+02  2.941E+02
  9.922E-02  9.784E-02  1.019E+05 -3.373E-09  5.554E-02  2.947E+02  2.947E+02
  9.922E-02  1.042E-01  1.019E+05 -3.754E-09  5.538E-02  2.955E+02  2.955E+02
  9.922E-02  1.105E-01  1.019E+05 -5.374E-09  5.524E-02  2.966E+02  2.965E+02
  9.922E-02  1.168E-01  1.019E+05  5.830E-09  5.511E-02  2.981E+02  2.980E+02
  9.922E-02  1.231E-01  1.019E+05 -1.285E-08  5.499E-02  3.000E+02  2.999E+02
  9.922E-02  1.294E-01  1.018E+05 -1.842E-08  5.490E-02  3.026E+02  3.025E+02
  9.922E-02  1.357E-01  1.018E+05 -2.456E-08  5.481E-02  3.058E+02  3.057E+02
  9.922E-02  1.420E-01  1.018E+05 -2.789E-08  5.474E-02  3.099E+02  3.097E+02
  9.922E-02  1.483E-01  1.018E+05 -2.862E-08  5.468E-02  3.148E+02  3.146E+02
  9.922E-02  1.547E-01  1.018E+05 -2.789E-08  5.462E-02  3.206E+02  3.204E+02
  9.922E-02  1.610E-01  1.018E+05 -2.633E-08  5.458E-02  3.273E+02  3.271E+02
  9.922E-02  1.673E-01  1.018E+05 -2.506E-08  5.454E-02  3.350E+02  3.347E+02
  9.922E-02  1.736E-01  1.018E+05 -2.392E-08  5.452E-02  3.434E+02  3.431E+02
  9.922E-02  1.799E-01  1.018E+05 -2.270E-08  5.450E-02  3.525E+02  3.521E+02
  9.922E-02  1.862E-01  1.018E+05 -2.205E-08  5.448E-02  3.620E+02  3.616E+02
  9.922E-02  1.925E-01  1.018E+05 -2.179E-08  5.446E-02  3.717E+02  3.713E+02
  9.922E-02  1.988E-01  1.018E+05 -2.099E-08  5.445E-02  3.812E+02  3.808E+02
  9.922E-02  2.052E-01  1.017E+05 -1.957E-08  5.444E-02  3.903E+02  3.899E+02
  9.922E-02  2.115E-01  1.017E+05 -1.780E-08  5.442E-02  3.986E+02  3.983E+02
  9.922E-02  2.178E-01  1.017E+05 -1.540E-08  5.442E-02  4.058E+02  4.055E+02
  9.922E-02  2.241E-01  1.017E+05 -1.338E-08  5.441E-02  4.118E+02  4.115E+02
  9.922E-02  2.304E-01  1.017E+05 -1.208E-08  5.439E-02  4.161E+02  4.159E+02
  9.922E-02  2.367E-01  1.017E+05 -9.809E-09  5.437E-02  4.188E+02  4.187E+02
  9.922E-02  2.430E-01  1.017E+05 -8.060E-09  5.435E-02  4.197E+02  4.197E+02
  9.922E-02  2.493E-01  1.017E+05 -6.869E-09  5.432E-02  4.189E+02  4.189E+02
  9.922E-02  2.557E-01  1.017E+05 -4.399E-09  5.428E-02  4.164E+02  4.165E+02
  9.922E-02  2.620E-01  1.017E+05 -1.530E-09  5.425E-02  4.124E+02  4.125E+02
  9.922E-02  2.683E-01  1.017E+05  4.625E-10  5.422E-02  4.070E+02  4.072E+02
  9.922E-02  2.746E-01  1.016E+05  1.901E-09  5.418E-02  4.005E+02  4.007E+02
  9.922E-02  2.809E-01  1.016E+05  2.762E-09  5.413E-02  3.931E+02  3.934E+02
  9.922E-02  2.872E-01  1.016E+05  4.132E-09  5.409E-02  3.852E+02  3.855E+02
  9.922E-02  2.935E-01  1.016E+05  6.389E-09  5.404E-02  3.769E+02  3.772E+02
  9.922E-02  2.998E-01  1.016E+05  8.881E-09  5.399E-02  3.685E+02  3.689E+02
  9.922E-02  3.062E-01  1.016E+05  1.030E-08  5.394E-02  3.602E+02  3.606E+02
  9.922E-02  3.125E-01  1.016E+05  1.145E-08  5.389E-02  3.523E+02  3.526E+02
  9.922E-02  3.188E-01  1.016E+05  1.266E-08  5.383E-02  3.447E+02  3.450E+02
  9.922E-02  3.251E-01  1.016E+05  1.336E-08  5.379E-02  3.376E+02  3.379E+02
  9.922E-02  3.314E-01  1.016E+05  1.447E-08  5.374E-02  3.312E+02  3.315E+02
  9.922E-02  3.377E-01  1.016E+05  1.461E-08  5.369E-02  3.254E+02  3.256E+02