VARIABLES="XP","YP","P","U","V","TS","TF"
ZONE T="Zone 001"I=    62 J=    22 F=POINT
  0.000E+00  0.000E+00 -6.156E-05  0.000E+00  0.000E+00  2.930E+02  2.931E+02
  0.000E+00  4.208E-03 -6.156E-05  0.000E+00  0.000E+00  2.930E+02  2.931E+02
  0.000E+00  1.262E-02 -6.170E-05  0.000E+00  0.000E+00  2.930E+02  2.932E+02
  0.000E+00  2.104E-02 -6.177E-05  0.000E+00  0.000E+00  2.930E+02  2.934E+02
  0.000E+00  2.946E-02 -6.180E-05  0.000E+00  0.000E+00  2.930E+02  2.938E+02
  0.000E+00  3.787E-02 -6.183E-05  0.000E+00  0.000E+00  2.930E+02  2.946E+02
  0.000E+00  4.629E-02 -6.184E-05  0.000E+00  0.000E+00  2.930E+02  2.958E+02
  0.000E+00  5.471E-02 -6.186E-05  0.000E+00  0.000E+00  2.930E+02  2.979E+02
  0.000E+00  6.313E-02 -6.187E-05  0.000E+00  0.000E+00  2.930E+02  3.011E+02
  0.000E+00  7.154E-02 -6.188E-05  0.000E+00  0.000E+00  2.930E+02  3.059E+02
  0.000E+00  7.996E-02 -6.188E-05  0.000E+00  0.000E+00  2.930E+02  3.122E+02
  0.000E+00  8.838E-02 -6.189E-05  0.000E+00  0.000E+00  2.930E+02  3.196E+02
  0.000E+00  9.679E-02 -6.189E-05  0.000E+00  0.000E+00  2.930E+02  3.263E+02
  0.000E+00  1.052E-01 -6.189E-05  0.000E+00  0.000E+00  2.931E+02  3.294E+02
  0.000E+00  1.136E-01 -6.189E-05  0.000E+00  0.000E+00  2.930E+02  3.263E+02
  0.000E+00  1.220E-01 -6.189E-05  0.000E+00  0.000E+00  2.930E+02  3.196E+02
  0.000E+00  1.305E-01 -6.189E-05  0.000E+00  0.000E+00  2.930E+02  3.122E+02
  0.000E+00  1.389E-01 -6.188E-05  0.000E+00  0.000E+00  2.930E+02  3.059E+02
  0.000E+00  1.473E-01 -6.188E-05  0.000E+00  0.000E+00  2.930E+02  3.011E+02
  0.000E+00  1.557E-01 -6.187E-05  0.000E+00  0.000E+00  2.930E+02  2.979E+02
  0.000E+00  1.641E-01 -6.186E-05  0.000E+00  0.000E+00  2.930E+02  2.958E+02
  0.000E+00  1.725E-01 -6.185E-05  0.000E+00  0.000E+00  2.930E+02  2.946E+02
  0.000E+00  1.810E-01 -6.184E-05  0.000E+00  0.000E+00  2.930E+02  2.939E+02
  0.000E+00  1.894E-01 -6.183E-05  0.000E+00  0.000E+00  2.930E+02  2.935E+02
  0.000E+00  1.978E-01 -6.181E-05  0.000E+00  0.000E+00  2.930E+02  2.932E+02
  0.000E+00  2.062E-01 -6.179E-05  0.000E+00  0.000E+00  2.930E+02  2.931E+02
  0.000E+00  2.146E-01 -6.176E-05  0.000E+00  0.000E+00  2.930E+02  2.931E+02
  0.000E+00  2.230E-01 -6.173E-05  0.000E+00  0.000E+00  2.930E+02  2.930E+02
  0.000E+00  2.315E-01 -6.169E-05  0.000E+00  0.000E+00  2.930E+02  2.930E+02
  0.000E+00  2.399E-01 -6.165E-05  0.000E+00  0.000E+00  2.930E+02  2.930E+02
  0.000E+00  2.483E-01 -6.160E-05  0.000E+00  0.000E+00  2.930E+02  2.930E+02
  0.000E+00  2.567E-01 -6.153E-05  0.000E+00  0.000E+00  2.930E+02  2.930E+02
  0.000E+00  2.651E-01 -6.146E-05  0.000E+00  0.000E+00  2.930E+02  2.930E+02
  0.000E+00  2.735E-01 -6.137E-05  0.000E+00  0.000E+00  2.930E+02  2.930E+02
  0.000E+00  2.820E-01 -6.127E-05  0.000E+00  0.000E+00  2.930E+02  2.930E+02
  0.000E+00  2.904E-01 -6.115E-05  0.000E+00  0.000E+00  2.930E+02  2.930E+02
  0.000E+00  2.988E-01 -6.100E-05  0.000E+00  0.000E+00  2.930E+02  2.930E+02
  0.000E+00  3.072E-01 -6.083E-05  0.000E+00  0.000E+00  2.930E+02  2.930E+02
  0.000E+00  3.156E-01 -6.062E-05  0.000E+00  0.000E+00  2.930E+02  2.930E+02
  0.000E+00  3.240E-01 -6.038E-05  0.000E+00  0.000E+00  2.930E+02  2.930E+02
  0.000E+00  3.325E-01 -6.009E-05  0.000E+00  0.000E+00  2.930E+02  2.930E+02
  0.000E+00  3.409E-01 -5.975E-05  0.000E+00  0.000E+00  2.930E+02  2.930E+02
  0.000E+00  3.493E-01 -5.934E-05  0.000E+00  0.000E+00  2.930E+02  2.930E+02
  0.000E+00  3.577E-01 -5.886E-05  0.000E+00  0.000E+00  2.930E+02  2.930E+02
  0.000E+00  3.661E-01 -5.829E-05  0.000E+00  0.000E+00  2.930E+02  2.930E+02
  0.000E+00  3.745E-01 -5.762E-05  0.000E+00  0.000E+00  2.930E+02  2.931E+02
  0.000E+00  3.830E-01 -5.682E-05  0.000E+00  0.000E+00  2.930E+02  2.931E+02
  0.000E+00  3.914E-01 -5.586E-05  0.000E+00  0.000E+00  2.930E+02  2.933E+02
  0.000E+00  3.998E-01 -5.473E-05  0.000E+00  0.000E+00  2.930E+02  2.936E+02
  0.000E+00  4.082E-01 -5.339E-05  0.000E+00  0.000E+00  2.930E+02  2.941E+02
  0.000E+00  4.166E-01 -5.180E-05  0.000E+00  0.000E+00  2.930E+02  2.950E+02
  0.000E+00  4.250E-01 -4.989E-05  0.000E+00  0.000E+00  2.930E+02  2.967E+02
  0.000E+00  4.335E-01 -4.762E-05  0.000E+00  0.000E+00  2.930E+02  2.996E+02
  0.000E+00  4.419E-01 -4.489E-05  0.000E+00  0.000E+00  2.930E+02  3.044E+02
  0.000E+00  4.503E-01 -4.161E-05  0.000E+00  0.000E+00  2.930E+02  3.122E+02
  0.000E+00  4.587E-01 -3.761E-05  0.000E+00  0.000E+00  2.930E+02  3.241E+02
  0.000E+00  4.671E-01 -3.272E-05  0.000E+00  0.000E+00  2.930E+02  3.415E+02
  0.000E+00  4.755E-01 -2.653E-05  0.000E+00  0.000E+00  2.930E+02  3.655E+02
  0.000E+00  4.840E-01 -1.832E-05  0.000E+00  0.000E+00  2.930E+02  3.966E+02
  0.000E+00  4.924E-01 -7.832E-06  0.000E+00  0.000E+00  2.931E+02  4.341E+02
  0.000E+00  5.008E-01  1.248E-06  0.000E+00  0.000E+00  3.022E+02  4.763E+02
  0.000E+00  5.050E-01  1.248E-06  0.000E+00  0.000E+00  3.022E+02  4.763E+02
  4.000E-03  0.000E+00 -5.345E-05 -1.572E-05  0.000E+00  2.930E+02  2.930E+02
  4.000E-03  4.208E-03 -5.352E-05 -1.572E-05  1.423E-07  2.930E+02  2.931E+02
  4.000E-03  1.262E-02 -5.361E-05 -1.583E-05  8.562E-08  2.930E+02  2.932E+02
  4.000E-03  2.104E-02 -5.366E-05 -1.586E-05  5.040E-08  2.930E+02  2.934E+02
  4.000E-03  2.946E-02 -5.369E-05 -1.588E-05  3.350E-08  2.930E+02  2.938E+02
  4.000E-03  3.787E-02 -5.371E-05 -1.588E-05  2.408E-08  2.930E+02  2.946E+02
  4.000E-03  4.629E-02 -5.373E-05 -1.588E-05  1.820E-08  2.930E+02  2.958E+02
  4.000E-03  5.471E-02 -5.374E-05 -1.589E-05  1.405E-08  2.930E+02  2.979E+02
  4.000E-03  6.313E-02 -5.375E-05 -1.589E-05  1.091E-08  2.930E+02  3.011E+02
  4.000E-03  7.154E-02 -5.376E-05 -1.589E-05  8.379E-09  2.930E+02  3.059E+02
  4.000E-03  7.996E-02 -5.376E-05 -1.589E-05  6.259E-09  2.930E+02  3.122E+02
  4.000E-03  8.838E-02 -5.377E-05 -1.589E-05  4.411E-09  2.930E+02  3.196E+02
  4.000E-03  9.679E-02 -5.377E-05 -1.589E-05  2.739E-09  2.930E+02  3.263E+02
  4.000E-03  1.052E-01 -5.377E-05 -1.589E-05  1.172E-09  2.931E+02  3.294E+02
  4.000E-03  1.136E-01 -5.377E-05 -1.589E-05 -3.485E-10  2.930E+02  3.263E+02
  4.000E-03  1.220E-01 -5.377E-05 -1.589E-05 -1.875E-09  2.930E+02  3.196E+02
  4.000E-03  1.305E-01 -5.377E-05 -1.589E-05 -3.454E-09  2.930E+02  3.122E+02
  4.000E-03  1.389E-01 -5.377E-05 -1.589E-05 -5.130E-09  2.930E+02  3.059E+02
  4.000E-03  1.473E-01 -5.376E-05 -1.589E-05 -6.958E-09  2.930E+02  3.011E+02
  4.000E-03  1.557E-01 -5.375E-05 -1.589E-05 -8.995E-09  2.930E+02  2.979E+02
  4.000E-03  1.641E-01 -5.375E-05 -1.589E-05 -1.129E-08  2.930E+02  2.958E+02
  4.000E-03  1.725E-01 -5.374E-05 -1.588E-05 -1.392E-08  2.930E+02  2.946E+02
  4.000E-03  1.810E-01 -5.372E-05 -1.588E-05 -1.696E-08  2.930E+02  2.939E+02
  4.000E-03  1.894E-01 -5.371E-05 -1.588E-05 -2.049E-08  2.930E+02  2.935E+02
  4.000E-03  1.978E-01 -5.369E-05 -1.588E-05 -2.461E-08  2.930E+02  2.932E+02
  4.000E-03  2.062E-01 -5.367E-05 -1.588E-05 -2.946E-08  2.930E+02  2.931E+02
  4.000E-03  2.146E-01 -5.365E-05 -1.588E-05 -3.516E-08  2.930E+02  2.931E+02
  4.000E-03  2.230E-01 -5.362E-05 -1.587E-05 -4.188E-08  2.930E+02  2.930E+02
  4.000E-03  2.315E-01 -5.358E-05 -1.587E-05 -4.983E-08  2.930E+02  2.930E+02
  4.000E-03  2.399E-01 -5.354E-05 -1.587E-05 -5.923E-08  2.930E+02  2.930E+02
  4.000E-03  2.483E-01 -5.349E-05 -1.586E-05 -7.034E-08  2.930E+02  2.930E+02
  4.000E-03  2.567E-01 -5.343E-05 -1.586E-05 -8.350E-08  2.930E+02  2.930E+02
  4.000E-03  2.651E-01 -5.336E-05 -1.585E-05 -9.909E-08  2.930E+02  2.930E+02
  4.000E-03  2.735E-01 -5.328E-05 -1.584E-05 -1.176E-07  2.930E+02  2.930E+02
  4.000E-03  2.820E-01 -5.318E-05 -1.583E-05 -1.394E-07  2.930E+02  2.930E+02
  4.000E-03  2.904E-01 -5.306E-05 -1.582E-05 -1.654E-07  2.930E+02  2.930E+02
  4.000E-03  2.988E-01 -5.292E-05 -1.581E-05 -1.961E-07  2.930E+02  2.930E+02
  4.000E-03  3.072E-01 -5.276E-05 -1.579E-05 -2.325E-07  2.930E+02  2.930E+02
  4.000E-03  3.156E-01 -5.256E-05 -1.577E-05 -2.757E-07  2.930E+02  2.930E+02
  4.000E-03  3.240E-01 -5.233E-05 -1.575E-05 -3.269E-07  2.930E+02  2.930E+02
  4.000E-03  3.325E-01 -5.205E-05 -1.573E-05 -3.876E-07  2.930E+02  2.930E+02
  4.000E-03  3.409E-01 -5.173E-05 -1.570E-05 -4.595E-07  2.930E+02  2.930E+02
  4.000E-03  3.493E-01 -5.134E-05 -1.566E-05 -5.448E-07  2.930E+02  2.930E+02
  4.000E-03  3.577E-01 -5.088E-05 -1.562E-05 -6.460E-07  2.930E+02  2.930E+02
  4.000E-03  3.661E-01 -5.033E-05 -1.556E-05 -7.660E-07  2.930E+02  2.930E+02
  4.000E-03  3.745E-01 -4.969E-05 -1.550E-05 -9.085E-07  2.930E+02  2.931E+02
  4.000E-03  3.830E-01 -4.892E-05 -1.543E-05 -1.078E-06  2.930E+02  2.931E+02
  4.000E-03  3.914E-01 -4.801E-05 -1.535E-05 -1.279E-06  2.930E+02  2.933E+02
  4.000E-03  3.998E-01 -4.694E-05 -1.524E-05 -1.518E-06  2.930E+02  2.936E+02
  4.000E-03  4.082E-01 -4.565E-05 -1.512E-05 -1.804E-06  2.930E+02  2.941E+02
  4.000E-03  4.166E-01 -4.413E-05 -1.497E-05 -2.145E-06  2.930E+02  2.950E+02
  4.000E-03  4.250E-01 -4.232E-05 -1.479E-05 -2.556E-06  2.930E+02  2.967E+02
  4.000E-03  4.335E-01 -4.016E-05 -1.456E-05 -3.052E-06  2.930E+02  2.996E+02
  4.000E-03  4.419E-01 -3.758E-05 -1.427E-05 -3.659E-06  2.930E+02  3.044E+02
  4.000E-03  4.503E-01 -3.447E-05 -1.391E-05 -4.408E-06  2.930E+02  3.122E+02
  4.000E-03  4.587E-01 -3.072E-05 -1.341E-05 -5.335E-06  2.930E+02  3.241E+02
  4.000E-03  4.671E-01 -2.618E-05 -1.273E-05 -6.587E-06  2.930E+02  3.415E+02
  4.000E-03  4.755E-01 -2.048E-05 -1.175E-05 -8.459E-06  2.930E+02  3.655E+02
  4.000E-03  4.840E-01 -1.301E-05 -1.018E-05 -1.033E-05  2.930E+02  3.966E+02
  4.000E-03  4.924E-01 -4.398E-06 -6.498E-06 -9.513E-06  2.931E+02  4.341E+02
  4.000E-03  5.008E-01  1.853E-06 -5.623E-07 -1.727E-06  3.022E+02  4.763E+02
  4.000E-03  5.050E-01  0.000E+00  0.000E+00 -1.727E-06  2.930E+02  2.930E+02
  1.200E-02  0.000E+00 -4.610E-05 -9.039E-06  0.000E+00  2.930E+02  2.930E+02
  1.200E-02  4.208E-03 -4.612E-05 -9.039E-06  4.554E-08  2.930E+02  2.931E+02
  1.200E-02  1.262E-02 -4.614E-05 -9.089E-06  3.449E-08  2.930E+02  2.932E+02
  1.200E-02  2.104E-02 -4.617E-05 -9.112E-06  3.298E-08  2.930E+02  2.934E+02
  1.200E-02  2.946E-02 -4.619E-05 -9.122E-06  2.726E-08  2.930E+02  2.938E+02
  1.200E-02  3.787E-02 -4.621E-05 -9.126E-06  2.139E-08  2.930E+02  2.946E+02
  1.200E-02  4.629E-02 -4.623E-05 -9.129E-06  1.680E-08  2.930E+02  2.958E+02
  1.200E-02  5.471E-02 -4.624E-05 -9.130E-06  1.328E-08  2.930E+02  2.979E+02
  1.200E-02  6.313E-02 -4.625E-05 -9.131E-06  1.045E-08  2.930E+02  3.011E+02
  1.200E-02  7.154E-02 -4.625E-05 -9.132E-06  8.109E-09  2.930E+02  3.059E+02
  1.200E-02  7.996E-02 -4.626E-05 -9.133E-06  6.103E-09  2.930E+02  3.123E+02
  1.200E-02  8.838E-02 -4.626E-05 -9.133E-06  4.333E-09  2.930E+02  3.197E+02
  1.200E-02  9.679E-02 -4.627E-05 -9.133E-06  2.721E-09  2.930E+02  3.264E+02
  1.200E-02  1.052E-01 -4.627E-05 -9.133E-06  1.201E-09  2.931E+02  3.294E+02
  1.200E-02  1.136E-01 -4.627E-05 -9.133E-06 -2.745E-10  2.930E+02  3.264E+02
  1.200E-02  1.220E-01 -4.627E-05 -9.133E-06 -1.758E-09  2.930E+02  3.197E+02
  1.200E-02  1.305E-01 -4.627E-05 -9.133E-06 -3.295E-09  2.930E+02  3.123E+02
  1.200E-02  1.389E-01 -4.626E-05 -9.133E-06 -4.926E-09  2.930E+02  3.059E+02
  1.200E-02  1.473E-01 -4.626E-05 -9.132E-06 -6.704E-09  2.930E+02  3.011E+02
  1.200E-02  1.557E-01 -4.625E-05 -9.132E-06 -8.681E-09  2.930E+02  2.979E+02
  1.200E-02  1.641E-01 -4.625E-05 -9.131E-06 -1.091E-08  2.930E+02  2.958E+02
  1.200E-02  1.725E-01 -4.624E-05 -9.130E-06 -1.346E-08  2.930E+02  2.946E+02
  1.200E-02  1.810E-01 -4.623E-05 -9.130E-06 -1.641E-08  2.930E+02  2.939E+02
  1.200E-02  1.894E-01 -4.621E-05 -9.129E-06 -1.983E-08  2.930E+02  2.935E+02
  1.200E-02  1.978E-01 -4.620E-05 -9.127E-06 -2.383E-08  2.930E+02  2.932E+02
  1.200E-02  2.062E-01 -4.618E-05 -9.126E-06 -2.853E-08  2.930E+02  2.931E+02
  1.200E-02  2.146E-01 -4.615E-05 -9.124E-06 -3.406E-08  2.930E+02  2.931E+02
  1.200E-02  2.230E-01 -4.612E-05 -9.122E-06 -4.058E-08  2.930E+02  2.930E+02
  1.200E-02  2.315E-01 -4.609E-05 -9.120E-06 -4.828E-08  2.930E+02  2.930E+02
  1.200E-02  2.399E-01 -4.605E-05 -9.117E-06 -5.739E-08  2.930E+02  2.930E+02
  1.200E-02  2.483E-01 -4.600E-05 -9.114E-06 -6.817E-08  2.930E+02  2.930E+02
  1.200E-02  2.567E-01 -4.595E-05 -9.109E-06 -8.093E-08  2.930E+02  2.930E+02
  1.200E-02  2.651E-01 -4.588E-05 -9.105E-06 -9.604E-08  2.930E+02  2.930E+02
  1.200E-02  2.735E-01 -4.580E-05 -9.099E-06 -1.139E-07  2.930E+02  2.930E+02
  1.200E-02  2.820E-01 -4.570E-05 -9.092E-06 -1.352E-07  2.930E+02  2.930E+02
  1.200E-02  2.904E-01 -4.559E-05 -9.084E-06 -1.603E-07  2.930E+02  2.930E+02
  1.200E-02  2.988E-01 -4.546E-05 -9.075E-06 -1.901E-07  2.930E+02  2.930E+02
  1.200E-02  3.072E-01 -4.530E-05 -9.063E-06 -2.254E-07  2.930E+02  2.930E+02
  1.200E-02  3.156E-01 -4.512E-05 -9.050E-06 -2.673E-07  2.930E+02  2.930E+02
  1.200E-02  3.240E-01 -4.489E-05 -9.034E-06 -3.170E-07  2.930E+02  2.930E+02
  1.200E-02  3.325E-01 -4.463E-05 -9.016E-06 -3.758E-07  2.930E+02  2.930E+02
  1.200E-02  3.409E-01 -4.432E-05 -8.993E-06 -4.456E-07  2.930E+02  2.930E+02
  1.200E-02  3.493E-01 -4.395E-05 -8.967E-06 -5.283E-07  2.930E+02  2.930E+02
  1.200E-02  3.577E-01 -4.351E-05 -8.936E-06 -6.263E-07  2.930E+02  2.930E+02
  1.200E-02  3.661E-01 -4.299E-05 -8.899E-06 -7.427E-07  2.930E+02  2.930E+02
  1.200E-02  3.745E-01 -4.238E-05 -8.855E-06 -8.807E-07  2.930E+02  2.931E+02
  1.200E-02  3.830E-01 -4.165E-05 -8.802E-06 -1.044E-06  2.930E+02  2.931E+02
  1.200E-02  3.914E-01 -4.078E-05 -8.740E-06 -1.239E-06  2.930E+02  2.933E+02
  1.200E-02  3.998E-01 -3.976E-05 -8.665E-06 -1.470E-06  2.930E+02  2.936E+02
  1.200E-02  4.082E-01 -3.854E-05 -8.575E-06 -1.745E-06  2.930E+02  2.941E+02
  1.200E-02  4.166E-01 -3.709E-05 -8.467E-06 -2.074E-06  2.930E+02  2.950E+02
  1.200E-02  4.250E-01 -3.537E-05 -8.334E-06 -2.467E-06  2.930E+02  2.967E+02
  1.200E-02  4.335E-01 -3.332E-05 -8.171E-06 -2.938E-06  2.930E+02  2.995E+02
  1.200E-02  4.419E-01 -3.088E-05 -7.965E-06 -3.510E-06  2.930E+02  3.043E+02
  1.200E-02  4.503E-01 -2.796E-05 -7.700E-06 -4.207E-06  2.930E+02  3.121E+02
  1.200E-02  4.587E-01 -2.446E-05 -7.347E-06 -5.046E-06  2.930E+02  3.240E+02
  1.200E-02  4.671E-01 -2.025E-05 -6.861E-06 -6.170E-06  2.930E+02  3.413E+02
  1.200E-02  4.755E-01 -1.503E-05 -6.163E-06 -7.740E-06  2.930E+02  3.653E+02
  1.200E-02  4.840E-01 -8.415E-06 -4.921E-06 -8.796E-06  2.930E+02  3.964E+02
  1.200E-02  4.924E-01 -1.582E-06 -2.608E-06 -6.502E-06  2.931E+02  4.339E+02
  1.200E-02  5.008E-01  1.475E-06  3.648E-07 -1.155E-07  3.022E+02  4.763E+02
  1.200E-02  5.050E-01  0.000E+00  0.000E+00 -1.155E-07  2.930E+02  2.930E+02
  2.000E-02  0.000E+00 -4.044E-05 -7.573E-06  0.000E+00  2.930E+02  2.930E+02
  2.000E-02  4.208E-03 -4.045E-05 -7.573E-06  2.046E-08  2.930E+02  2.931E+02
  2.000E-02  1.262E-02 -4.046E-05 -7.585E-06  1.761E-08  2.930E+02  2.932E+02
  2.000E-02  2.104E-02 -4.048E-05 -7.597E-06  2.082E-08  2.930E+02  2.934E+02
  2.000E-02  2.946E-02 -4.050E-05 -7.605E-06  2.042E-08  2.930E+02  2.938E+02
  2.000E-02  3.787E-02 -4.051E-05 -7.610E-06  1.765E-08  2.930E+02  2.946E+02
  2.000E-02  4.629E-02 -4.052E-05 -7.613E-06  1.462E-08  2.930E+02  2.958E+02
  2.000E-02  5.471E-02 -4.053E-05 -7.615E-06  1.190E-08  2.930E+02  2.979E+02
  2.000E-02  6.313E-02 -4.054E-05 -7.617E-06  9.543E-09  2.930E+02  3.011E+02
  2.000E-02  7.154E-02 -4.055E-05 -7.617E-06  7.492E-09  2.930E+02  3.059E+02
  2.000E-02  7.996E-02 -4.055E-05 -7.618E-06  5.684E-09  2.930E+02  3.123E+02
  2.000E-02  8.838E-02 -4.056E-05 -7.619E-06  4.058E-09  2.930E+02  3.197E+02
  2.000E-02  9.679E-02 -4.056E-05 -7.619E-06  2.558E-09  2.930E+02  3.264E+02
  2.000E-02  1.052E-01 -4.056E-05 -7.619E-06  1.135E-09  2.931E+02  3.295E+02
  2.000E-02  1.136E-01 -4.056E-05 -7.619E-06 -2.547E-10  2.930E+02  3.264E+02
  2.000E-02  1.220E-01 -4.056E-05 -7.619E-06 -1.656E-09  2.930E+02  3.197E+02
  2.000E-02  1.305E-01 -4.056E-05 -7.619E-06 -3.106E-09  2.930E+02  3.123E+02
  2.000E-02  1.389E-01 -4.056E-05 -7.619E-06 -4.650E-09  2.930E+02  3.059E+02
  2.000E-02  1.473E-01 -4.055E-05 -7.618E-06 -6.333E-09  2.930E+02  3.011E+02
  2.000E-02  1.557E-01 -4.055E-05 -7.618E-06 -8.204E-09  2.930E+02  2.979E+02
  2.000E-02  1.641E-01 -4.054E-05 -7.617E-06 -1.032E-08  2.930E+02  2.958E+02
  2.000E-02  1.725E-01 -4.053E-05 -7.616E-06 -1.273E-08  2.930E+02  2.946E+02
  2.000E-02  1.810E-01 -4.052E-05 -7.615E-06 -1.551E-08  2.930E+02  2.939E+02
  2.000E-02  1.894E-01 -4.051E-05 -7.614E-06 -1.875E-08  2.930E+02  2.935E+02
  2.000E-02  1.978E-01 -4.049E-05 -7.612E-06 -2.254E-08  2.930E+02  2.932E+02
  2.000E-02  2.062E-01 -4.047E-05 -7.611E-06 -2.699E-08  2.930E+02  2.931E+02
  2.000E-02  2.146E-01 -4.045E-05 -7.609E-06 -3.222E-08  2.930E+02  2.931E+02
  2.000E-02  2.230E-01 -4.042E-05 -7.606E-06 -3.839E-08  2.930E+02  2.930E+02
  2.000E-02  2.315E-01 -4.039E-05 -7.603E-06 -4.568E-08  2.930E+02  2.930E+02
  2.000E-02  2.399E-01 -4.035E-05 -7.600E-06 -5.430E-08  2.930E+02  2.930E+02
  2.000E-02  2.483E-01 -4.031E-05 -7.595E-06 -6.450E-08  2.930E+02  2.930E+02
  2.000E-02  2.567E-01 -4.026E-05 -7.590E-06 -7.657E-08  2.930E+02  2.930E+02
  2.000E-02  2.651E-01 -4.019E-05 -7.584E-06 -9.087E-08  2.930E+02  2.930E+02
  2.000E-02  2.735E-01 -4.012E-05 -7.577E-06 -1.078E-07  2.930E+02  2.930E+02
  2.000E-02  2.820E-01 -4.003E-05 -7.569E-06 -1.279E-07  2.930E+02  2.930E+02
  2.000E-02  2.904E-01 -3.992E-05 -7.559E-06 -1.517E-07  2.930E+02  2.930E+02
  2.000E-02  2.988E-01 -3.980E-05 -7.547E-06 -1.799E-07  2.930E+02  2.930E+02
  2.000E-02  3.072E-01 -3.965E-05 -7.534E-06 -2.133E-07  2.930E+02  2.930E+02
  2.000E-02  3.156E-01 -3.947E-05 -7.517E-06 -2.530E-07  2.930E+02  2.930E+02
  2.000E-02  3.240E-01 -3.926E-05 -7.498E-06 -2.999E-07  2.930E+02  2.930E+02
  2.000E-02  3.325E-01 -3.901E-05 -7.474E-06 -3.556E-07  2.930E+02  2.930E+02
  2.000E-02  3.409E-01 -3.872E-05 -7.447E-06 -4.216E-07  2.930E+02  2.930E+02
  2.000E-02  3.493E-01 -3.837E-05 -7.414E-06 -4.999E-07  2.930E+02  2.930E+02
  2.000E-02  3.577E-01 -3.796E-05 -7.376E-06 -5.926E-07  2.930E+02  2.930E+02
  2.000E-02  3.661E-01 -3.746E-05 -7.330E-06 -7.026E-07  2.930E+02  2.930E+02
  2.000E-02  3.745E-01 -3.688E-05 -7.275E-06 -8.330E-07  2.930E+02  2.931E+02
  2.000E-02  3.830E-01 -3.619E-05 -7.211E-06 -9.877E-07  2.930E+02  2.931E+02
  2.000E-02  3.914E-01 -3.537E-05 -7.133E-06 -1.171E-06  2.930E+02  2.933E+02
  2.000E-02  3.998E-01 -3.440E-05 -7.041E-06 -1.389E-06  2.930E+02  2.935E+02
  2.000E-02  4.082E-01 -3.325E-05 -6.930E-06 -1.647E-06  2.930E+02  2.940E+02
  2.000E-02  4.166E-01 -3.189E-05 -6.797E-06 -1.955E-06  2.930E+02  2.950E+02
  2.000E-02  4.250E-01 -3.027E-05 -6.634E-06 -2.320E-06  2.930E+02  2.966E+02
  2.000E-02  4.335E-01 -2.834E-05 -6.434E-06 -2.756E-06  2.930E+02  2.995E+02
  2.000E-02  4.419E-01 -2.606E-05 -6.185E-06 -3.278E-06  2.930E+02  3.042E+02
  2.000E-02  4.503E-01 -2.334E-05 -5.867E-06 -3.900E-06  2.930E+02  3.119E+02
  2.000E-02  4.587E-01 -2.010E-05 -5.448E-06 -4.634E-06  2.930E+02  3.237E+02
  2.000E-02  4.671E-01 -1.626E-05 -4.888E-06 -5.582E-06  2.930E+02  3.410E+02
  2.000E-02  4.755E-01 -1.157E-05 -4.075E-06 -6.772E-06  2.930E+02  3.649E+02
  2.000E-02  4.840E-01 -5.910E-06 -2.716E-06 -7.154E-06  2.930E+02  3.959E+02
  2.000E-02  4.924E-01 -6.573E-07 -7.652E-07 -4.701E-06  2.931E+02  4.336E+02
  2.000E-02  5.008E-01  1.233E-06  4.536E-07  3.322E-07  3.022E+02  4.761E+02
  2.000E-02  5.050E-01  0.000E+00  0.000E+00  3.322E-07  2.930E+02  2.930E+02
  2.800E-02  0.000E+00 -3.513E-05 -7.473E-06  0.000E+00  2.930E+02  2.930E+02
  2.800E-02  4.208E-03 -3.513E-05 -7.473E-06  1.365E-08  2.930E+02  2.931E+02
  2.800E-02  1.262E-02 -3.514E-05 -7.477E-06  1.130E-08  2.930E+02  2.932E+02
  2.800E-02  2.104E-02 -3.515E-05 -7.483E-06  1.374E-08  2.930E+02  2.934E+02
  2.800E-02  2.946E-02 -3.516E-05 -7.489E-06  1.472E-08  2.930E+02  2.939E+02
  2.800E-02  3.787E-02 -3.517E-05 -7.494E-06  1.377E-08  2.930E+02  2.946E+02
  2.800E-02  4.629E-02 -3.518E-05 -7.497E-06  1.204E-08  2.930E+02  2.958E+02
  2.800E-02  5.471E-02 -3.519E-05 -7.499E-06  1.015E-08  2.930E+02  2.979E+02
  2.800E-02  6.313E-02 -3.520E-05 -7.501E-06  8.328E-09  2.930E+02  3.011E+02
  2.800E-02  7.154E-02 -3.520E-05 -7.502E-06  6.638E-09  2.930E+02  3.059E+02
  2.800E-02  7.996E-02 -3.521E-05 -7.503E-06  5.088E-09  2.930E+02  3.123E+02
  2.800E-02  8.838E-02 -3.521E-05 -7.503E-06  3.655E-09  2.930E+02  3.197E+02
  2.800E-02  9.679E-02 -3.521E-05 -7.504E-06  2.309E-09  2.930E+02  3.264E+02
  2.800E-02  1.052E-01 -3.521E-05 -7.504E-06  1.020E-09  2.931E+02  3.295E+02
  2.800E-02  1.136E-01 -3.522E-05 -7.504E-06 -2.477E-10  2.930E+02  3.264E+02
  2.800E-02  1.220E-01 -3.521E-05 -7.504E-06 -1.531E-09  2.930E+02  3.197E+02
  2.800E-02  1.305E-01 -3.521E-05 -7.504E-06 -2.864E-09  2.930E+02  3.123E+02
  2.800E-02  1.389E-01 -3.521E-05 -7.503E-06 -4.284E-09  2.930E+02  3.059E+02
  2.800E-02  1.473E-01 -3.521E-05 -7.503E-06 -5.834E-09  2.930E+02  3.011E+02
  2.800E-02  1.557E-01 -3.520E-05 -7.502E-06 -7.558E-09  2.930E+02  2.979E+02
  2.800E-02  1.641E-01 -3.520E-05 -7.501E-06 -9.504E-09  2.930E+02  2.958E+02
  2.800E-02  1.725E-01 -3.519E-05 -7.500E-06 -1.173E-08  2.930E+02  2.946E+02
  2.800E-02  1.810E-01 -3.518E-05 -7.499E-06 -1.430E-08  2.930E+02  2.939E+02
  2.800E-02  1.894E-01 -3.517E-05 -7.497E-06 -1.728E-08  2.930E+02  2.935E+02
  2.800E-02  1.978E-01 -3.515E-05 -7.495E-06 -2.077E-08  2.930E+02  2.932E+02
  2.800E-02  2.062E-01 -3.513E-05 -7.493E-06 -2.487E-08  2.930E+02  2.931E+02
  2.800E-02  2.146E-01 -3.511E-05 -7.490E-06 -2.969E-08  2.930E+02  2.931E+02
  2.800E-02  2.230E-01 -3.509E-05 -7.487E-06 -3.538E-08  2.930E+02  2.930E+02
  2.800E-02  2.315E-01 -3.506E-05 -7.483E-06 -4.210E-08  2.930E+02  2.930E+02
  2.800E-02  2.399E-01 -3.502E-05 -7.478E-06 -5.004E-08  2.930E+02  2.930E+02
  2.800E-02  2.483E-01 -3.498E-05 -7.472E-06 -5.944E-08  2.930E+02  2.930E+02
  2.800E-02  2.567E-01 -3.493E-05 -7.466E-06 -7.057E-08  2.930E+02  2.930E+02
  2.800E-02  2.651E-01 -3.487E-05 -7.458E-06 -8.375E-08  2.930E+02  2.930E+02
  2.800E-02  2.735E-01 -3.481E-05 -7.448E-06 -9.936E-08  2.930E+02  2.930E+02
  2.800E-02  2.820E-01 -3.472E-05 -7.437E-06 -1.179E-07  2.930E+02  2.930E+02
  2.800E-02  2.904E-01 -3.463E-05 -7.424E-06 -1.398E-07  2.930E+02  2.930E+02
  2.800E-02  2.988E-01 -3.451E-05 -7.408E-06 -1.658E-07  2.930E+02  2.930E+02
  2.800E-02  3.072E-01 -3.437E-05 -7.390E-06 -1.966E-07  2.930E+02  2.930E+02
  2.800E-02  3.156E-01 -3.421E-05 -7.368E-06 -2.331E-07  2.930E+02  2.930E+02
  2.800E-02  3.240E-01 -3.402E-05 -7.342E-06 -2.764E-07  2.930E+02  2.930E+02
  2.800E-02  3.325E-01 -3.379E-05 -7.311E-06 -3.277E-07  2.930E+02  2.930E+02
  2.800E-02  3.409E-01 -3.352E-05 -7.274E-06 -3.886E-07  2.930E+02  2.930E+02
  2.800E-02  3.493E-01 -3.319E-05 -7.231E-06 -4.607E-07  2.930E+02  2.930E+02
  2.800E-02  3.577E-01 -3.281E-05 -7.179E-06 -5.461E-07  2.930E+02  2.930E+02
  2.800E-02  3.661E-01 -3.236E-05 -7.118E-06 -6.474E-07  2.930E+02  2.930E+02
  2.800E-02  3.745E-01 -3.182E-05 -7.045E-06 -7.674E-07  2.930E+02  2.931E+02
  2.800E-02  3.830E-01 -3.119E-05 -6.959E-06 -9.095E-07  2.930E+02  2.931E+02
  2.800E-02  3.914E-01 -3.044E-05 -6.856E-06 -1.078E-06  2.930E+02  2.933E+02
  2.800E-02  3.998E-01 -2.954E-05 -6.733E-06 -1.277E-06  2.930E+02  2.935E+02
  2.800E-02  4.082E-01 -2.848E-05 -6.586E-06 -1.513E-06  2.930E+02  2.940E+02
  2.800E-02  4.166E-01 -2.723E-05 -6.410E-06 -1.793E-06  2.930E+02  2.949E+02
  2.800E-02  4.250E-01 -2.575E-05 -6.197E-06 -2.123E-06  2.930E+02  2.966E+02
  2.800E-02  4.335E-01 -2.399E-05 -5.937E-06 -2.512E-06  2.930E+02  2.994E+02
  2.800E-02  4.419E-01 -2.191E-05 -5.617E-06 -2.971E-06  2.930E+02  3.041E+02
  2.800E-02  4.503E-01 -1.945E-05 -5.215E-06 -3.506E-06  2.930E+02  3.116E+02
  2.800E-02  4.587E-01 -1.655E-05 -4.700E-06 -4.117E-06  2.930E+02  3.233E+02
  2.800E-02  4.671E-01 -1.316E-05 -4.030E-06 -4.866E-06  2.930E+02  3.405E+02
  2.800E-02  4.755E-01 -9.119E-06 -3.098E-06 -5.677E-06  2.930E+02  3.643E+02
  2.800E-02  4.840E-01 -4.489E-06 -1.720E-06 -5.652E-06  2.930E+02  3.953E+02
  2.800E-02  4.924E-01 -5.008E-07 -1.703E-07 -3.491E-06  2.931E+02  4.332E+02
  2.800E-02  5.008E-01  8.110E-07  4.380E-07  1.801E-07  3.022E+02  4.760E+02
  2.800E-02  5.050E-01  0.000E+00  0.000E+00  1.801E-07  2.930E+02  2.930E+02
  3.600E-02  0.000E+00 -2.962E-05 -7.593E-06  0.000E+00  2.930E+02  2.930E+02
  3.600E-02  4.208E-03 -2.963E-05 -7.593E-06  8.343E-09  2.930E+02  2.931E+02
  3.600E-02  1.262E-02 -2.963E-05 -7.596E-06  7.372E-09  2.930E+02  2.932E+02
  3.600E-02  2.104E-02 -2.964E-05 -7.600E-06  9.288E-09  2.930E+02  2.934E+02
  3.600E-02  2.946E-02 -2.965E-05 -7.604E-06  1.053E-08  2.930E+02  2.939E+02
  3.600E-02  3.787E-02 -2.965E-05 -7.608E-06  1.042E-08  2.930E+02  2.946E+02
  3.600E-02  4.629E-02 -2.966E-05 -7.610E-06  9.531E-09  2.930E+02  2.958E+02
  3.600E-02  5.471E-02 -2.967E-05 -7.613E-06  8.305E-09  2.930E+02  2.979E+02
  3.600E-02  6.313E-02 -2.968E-05 -7.614E-06  6.975E-09  2.930E+02  3.011E+02
  3.600E-02  7.154E-02 -2.968E-05 -7.615E-06  5.652E-09  2.930E+02  3.059E+02
  3.600E-02  7.996E-02 -2.968E-05 -7.616E-06  4.380E-09  2.930E+02  3.123E+02
  3.600E-02  8.838E-02 -2.969E-05 -7.617E-06  3.170E-09  2.930E+02  3.197E+02
  3.600E-02  9.679E-02 -2.969E-05 -7.617E-06  2.012E-09  2.930E+02  3.264E+02
  3.600E-02  1.052E-01 -2.969E-05 -7.618E-06  8.872E-10  2.931E+02  3.295E+02
  3.600E-02  1.136E-01 -2.969E-05 -7.618E-06 -2.283E-10  2.930E+02  3.264E+02
  3.600E-02  1.220E-01 -2.969E-05 -7.618E-06 -1.362E-09  2.930E+02  3.197E+02
  3.600E-02  1.305E-01 -2.969E-05 -7.617E-06 -2.543E-09  2.930E+02  3.123E+02
  3.600E-02  1.389E-01 -2.969E-05 -7.617E-06 -3.804E-09  2.930E+02  3.059E+02
  3.600E-02  1.473E-01 -2.968E-05 -7.616E-06 -5.181E-09  2.930E+02  3.011E+02
  3.600E-02  1.557E-01 -2.968E-05 -7.615E-06 -6.713E-09  2.930E+02  2.979E+02
  3.600E-02  1.641E-01 -2.967E-05 -7.614E-06 -8.443E-09  2.930E+02  2.958E+02
  3.600E-02  1.725E-01 -2.967E-05 -7.613E-06 -1.042E-08  2.930E+02  2.946E+02
  3.600E-02  1.810E-01 -2.966E-05 -7.611E-06 -1.270E-08  2.930E+02  2.939E+02
  3.600E-02  1.894E-01 -2.965E-05 -7.609E-06 -1.536E-08  2.930E+02  2.935E+02
  3.600E-02  1.978E-01 -2.963E-05 -7.607E-06 -1.846E-08  2.930E+02  2.932E+02
  3.600E-02  2.062E-01 -2.962E-05 -7.604E-06 -2.210E-08  2.930E+02  2.931E+02
  3.600E-02  2.146E-01 -2.960E-05 -7.600E-06 -2.639E-08  2.930E+02  2.931E+02
  3.600E-02  2.230E-01 -2.958E-05 -7.596E-06 -3.144E-08  2.930E+02  2.930E+02
  3.600E-02  2.315E-01 -2.955E-05 -7.591E-06 -3.741E-08  2.930E+02  2.930E+02
  3.600E-02  2.399E-01 -2.952E-05 -7.585E-06 -4.447E-08  2.930E+02  2.930E+02
  3.600E-02  2.483E-01 -2.948E-05 -7.578E-06 -5.283E-08  2.930E+02  2.930E+02
  3.600E-02  2.567E-01 -2.944E-05 -7.570E-06 -6.272E-08  2.930E+02  2.930E+02
  3.600E-02  2.651E-01 -2.939E-05 -7.560E-06 -7.444E-08  2.930E+02  2.930E+02
  3.600E-02  2.735E-01 -2.933E-05 -7.548E-06 -8.832E-08  2.930E+02  2.930E+02
  3.600E-02  2.820E-01 -2.925E-05 -7.534E-06 -1.048E-07  2.930E+02  2.930E+02
  3.600E-02  2.904E-01 -2.917E-05 -7.518E-06 -1.243E-07  2.930E+02  2.930E+02
  3.600E-02  2.988E-01 -2.906E-05 -7.498E-06 -1.474E-07  2.930E+02  2.930E+02
  3.600E-02  3.072E-01 -2.894E-05 -7.475E-06 -1.748E-07  2.930E+02  2.930E+02
  3.600E-02  3.156E-01 -2.880E-05 -7.448E-06 -2.072E-07  2.930E+02  2.930E+02
  3.600E-02  3.240E-01 -2.862E-05 -7.415E-06 -2.457E-07  2.930E+02  2.930E+02
  3.600E-02  3.325E-01 -2.842E-05 -7.376E-06 -2.913E-07  2.930E+02  2.930E+02
  3.600E-02  3.409E-01 -2.818E-05 -7.331E-06 -3.454E-07  2.930E+02  2.930E+02
  3.600E-02  3.493E-01 -2.789E-05 -7.276E-06 -4.095E-07  2.930E+02  2.930E+02
  3.600E-02  3.577E-01 -2.755E-05 -7.212E-06 -4.854E-07  2.930E+02  2.930E+02
  3.600E-02  3.661E-01 -2.715E-05 -7.136E-06 -5.753E-07  2.930E+02  2.930E+02
  3.600E-02  3.745E-01 -2.668E-05 -7.045E-06 -6.817E-07  2.930E+02  2.931E+02
  3.600E-02  3.830E-01 -2.611E-05 -6.937E-06 -8.077E-07  2.930E+02  2.931E+02
  3.600E-02  3.914E-01 -2.544E-05 -6.809E-06 -9.567E-07  2.930E+02  2.933E+02
  3.600E-02  3.998E-01 -2.465E-05 -6.657E-06 -1.133E-06  2.930E+02  2.935E+02
  3.600E-02  4.082E-01 -2.371E-05 -6.475E-06 -1.340E-06  2.930E+02  2.940E+02
  3.600E-02  4.166E-01 -2.260E-05 -6.258E-06 -1.584E-06  2.930E+02  2.949E+02
  3.600E-02  4.250E-01 -2.129E-05 -5.997E-06 -1.871E-06  2.930E+02  2.965E+02
  3.600E-02  4.335E-01 -1.975E-05 -5.682E-06 -2.204E-06  2.930E+02  2.992E+02
  3.600E-02  4.419E-01 -1.793E-05 -5.299E-06 -2.591E-06  2.930E+02  3.038E+02
  3.600E-02  4.503E-01 -1.579E-05 -4.826E-06 -3.029E-06  2.930E+02  3.113E+02
  3.600E-02  4.587E-01 -1.330E-05 -4.239E-06 -3.508E-06  2.930E+02  3.228E+02
  3.600E-02  4.671E-01 -1.043E-05 -3.502E-06 -4.060E-06  2.930E+02  3.399E+02
  3.600E-02  4.755E-01 -7.097E-06 -2.533E-06 -4.576E-06  2.930E+02  3.636E+02
  3.600E-02  4.840E-01 -3.443E-06 -1.276E-06 -4.372E-06  2.930E+02  3.946E+02
  3.600E-02  4.924E-01 -4.366E-07 -9.096E-08 -2.651E-06  2.931E+02  4.326E+02
  3.600E-02  5.008E-01  5.838E-07  2.610E-07  7.777E-08  3.022E+02  4.758E+02
  3.600E-02  5.050E-01  0.000E+00  0.000E+00  7.777E-08  2.930E+02  2.930E+02
  4.400E-02  0.000E+00 -2.412E-05 -7.594E-06  0.000E+00  2.930E+02  2.930E+02
  4.400E-02  4.208E-03 -2.412E-05 -7.594E-06  5.155E-09  2.930E+02  2.931E+02
  4.400E-02  1.262E-02 -2.412E-05 -7.596E-06  4.735E-09  2.930E+02  2.932E+02
  4.400E-02  2.104E-02 -2.413E-05 -7.599E-06  6.283E-09  2.930E+02  2.934E+02
  4.400E-02  2.946E-02 -2.413E-05 -7.602E-06  7.434E-09  2.930E+02  2.939E+02
  4.400E-02  3.787E-02 -2.414E-05 -7.605E-06  7.677E-09  2.930E+02  2.946E+02
  4.400E-02  4.629E-02 -2.415E-05 -7.607E-06  7.280E-09  2.930E+02  2.958E+02
  4.400E-02  5.471E-02 -2.415E-05 -7.609E-06  6.526E-09  2.930E+02  2.979E+02
  4.400E-02  6.313E-02 -2.416E-05 -7.611E-06  5.599E-09  2.930E+02  3.011E+02
  4.400E-02  7.154E-02 -2.416E-05 -7.612E-06  4.608E-09  2.930E+02  3.059E+02
  4.400E-02  7.996E-02 -2.416E-05 -7.613E-06  3.611E-09  2.930E+02  3.123E+02