VARIABLES="XP","YP","P","U","V","TS","TF"
ZONE T="Zone 001"I=    82 J=    12 F=POINT
  0.000E+00  0.000E+00  1.020E+05  0.000E+00  0.000E+00  2.931E+02  2.931E+02
  0.000E+00  3.156E-03  1.020E+05  0.000E+00  0.000E+00  2.931E+02  2.931E+02
  0.000E+00  9.469E-03  1.020E+05  0.000E+00  0.000E+00  2.934E+02  2.933E+02
  0.000E+00  1.578E-02  1.020E+05  0.000E+00  0.000E+00  2.937E+02  2.937E+02
  0.000E+00  2.209E-02  1.020E+05  0.000E+00  0.000E+00  2.942E+02  2.941E+02
  0.000E+00  2.841E-02  1.020E+05  0.000E+00  0.000E+00  2.949E+02  2.949E+02
  0.000E+00  3.472E-02  1.019E+05  0.000E+00  0.000E+00  2.960E+02  2.960E+02
  0.000E+00  4.103E-02  1.019E+05  0.000E+00  0.000E+00  2.979E+02  2.978E+02
  0.000E+00  4.734E-02  1.019E+05  0.000E+00  0.000E+00  3.008E+02  3.007E+02
  0.000E+00  5.366E-02  1.019E+05  0.000E+00  0.000E+00  3.055E+02  3.053E+02
  0.000E+00  5.997E-02  1.019E+05  0.000E+00  0.000E+00  3.128E+02  3.125E+02
  0.000E+00  6.628E-02  1.019E+05  0.000E+00  0.000E+00  3.240E+02  3.236E+02
  0.000E+00  7.259E-02  1.019E+05  0.000E+00  0.000E+00  3.406E+02  3.400E+02
  0.000E+00  7.891E-02  1.019E+05  0.000E+00  0.000E+00  3.646E+02  3.637E+02
  0.000E+00  8.522E-02  1.019E+05  0.000E+00  0.000E+00  3.984E+02  3.972E+02
  0.000E+00  9.153E-02  1.019E+05  0.000E+00  0.000E+00  4.454E+02  4.436E+02
  0.000E+00  9.784E-02  1.019E+05  0.000E+00  0.000E+00  5.117E+02  5.092E+02
  0.000E+00  1.042E-01  1.019E+05  0.000E+00  0.000E+00  6.138E+02  6.126E+02
  0.000E+00  1.105E-01  1.018E+05  0.000E+00  0.000E+00  5.979E+02  5.984E+02
  0.000E+00  1.168E-01  1.018E+05  0.000E+00  0.000E+00  5.608E+02  5.622E+02
  0.000E+00  1.231E-01  1.018E+05  0.000E+00  0.000E+00  5.136E+02  5.154E+02
  0.000E+00  1.294E-01  1.018E+05  0.000E+00  0.000E+00  4.654E+02  4.673E+02
  0.000E+00  1.357E-01  1.018E+05  0.000E+00  0.000E+00  4.222E+02  4.239E+02
  0.000E+00  1.420E-01  1.018E+05  0.000E+00  0.000E+00  3.864E+02  3.878E+02
  0.000E+00  1.483E-01  1.018E+05  0.000E+00  0.000E+00  3.584E+02  3.595E+02
  0.000E+00  1.547E-01  1.018E+05  0.000E+00  0.000E+00  3.376E+02  3.384E+02
  0.000E+00  1.610E-01  1.018E+05  0.000E+00  0.000E+00  3.227E+02  3.233E+02
  0.000E+00  1.673E-01  1.018E+05  0.000E+00  0.000E+00  3.124E+02  3.128E+02
  0.000E+00  1.736E-01  1.018E+05  0.000E+00  0.000E+00  3.055E+02  3.058E+02
  0.000E+00  1.799E-01  1.018E+05  0.000E+00  0.000E+00  3.010E+02  3.012E+02
  0.000E+00  1.862E-01  1.017E+05  0.000E+00  0.000E+00  2.981E+02  2.983E+02
  0.000E+00  1.925E-01  1.017E+05  0.000E+00  0.000E+00  2.964E+02  2.964E+02
  0.000E+00  1.988E-01  1.017E+05  0.000E+00  0.000E+00  2.953E+02  2.953E+02
  0.000E+00  2.052E-01  1.017E+05  0.000E+00  0.000E+00  2.946E+02  2.946E+02
  0.000E+00  2.115E-01  1.017E+05  0.000E+00  0.000E+00  2.942E+02  2.942E+02
  0.000E+00  2.178E-01  1.017E+05  0.000E+00  0.000E+00  2.939E+02  2.939E+02
  0.000E+00  2.241E-01  1.017E+05  0.000E+00  0.000E+00  2.938E+02  2.938E+02
  0.000E+00  2.304E-01  1.017E+05  0.000E+00  0.000E+00  2.936E+02  2.936E+02
  0.000E+00  2.367E-01  1.017E+05  0.000E+00  0.000E+00  2.936E+02  2.936E+02
  0.000E+00  2.430E-01  1.017E+05  0.000E+00  0.000E+00  2.935E+02  2.935E+02
  0.000E+00  2.493E-01  1.017E+05  0.000E+00  0.000E+00  2.934E+02  2.934E+02
  0.000E+00  2.557E-01  1.017E+05  0.000E+00  0.000E+00  2.934E+02  2.934E+02
  0.000E+00  2.620E-01  1.016E+05  0.000E+00  0.000E+00  2.934E+02  2.934E+02
  0.000E+00  2.683E-01  1.016E+05  0.000E+00  0.000E+00  2.933E+02  2.933E+02
  0.000E+00  2.746E-01  1.016E+05  0.000E+00  0.000E+00  2.933E+02  2.933E+02
  0.000E+00  2.809E-01  1.016E+05  0.000E+00  0.000E+00  2.933E+02  2.933E+02
  0.000E+00  2.872E-01  1.016E+05  0.000E+00  0.000E+00  2.932E+02  2.932E+02
  0.000E+00  2.935E-01  1.016E+05  0.000E+00  0.000E+00  2.932E+02  2.932E+02
  0.000E+00  2.998E-01  1.016E+05  0.000E+00  0.000E+00  2.932E+02  2.932E+02
  0.000E+00  3.062E-01  1.016E+05  0.000E+00  0.000E+00  2.932E+02  2.932E+02
  0.000E+00  3.125E-01  1.016E+05  0.000E+00  0.000E+00  2.932E+02  2.932E+02
  0.000E+00  3.188E-01  1.016E+05  0.000E+00  0.000E+00  2.932E+02  2.932E+02
  0.000E+00  3.251E-01  1.016E+05  0.000E+00  0.000E+00  2.931E+02  2.931E+02
  0.000E+00  3.314E-01  1.016E+05  0.000E+00  0.000E+00  2.931E+02  2.931E+02
  0.000E+00  3.377E-01  1.015E+05  0.000E+00  0.000E+00  2.931E+02  2.931E+02
  0.000E+00  3.440E-01  1.015E+05  0.000E+00  0.000E+00  2.931E+02  2.931E+02
  0.000E+00  3.503E-01  1.015E+05  0.000E+00  0.000E+00  2.931E+02  2.931E+02
  0.000E+00  3.567E-01  1.015E+05  0.000E+00  0.000E+00  2.931E+02  2.931E+02
  0.000E+00  3.630E-01  1.015E+05  0.000E+00  0.000E+00  2.931E+02  2.931E+02
  0.000E+00  3.693E-01  1.015E+05  0.000E+00  0.000E+00  2.931E+02  2.931E+02
  0.000E+00  3.756E-01  1.015E+05  0.000E+00  0.000E+00  2.931E+02  2.931E+02
  0.000E+00  3.819E-01  1.015E+05  0.000E+00  0.000E+00  2.931E+02  2.931E+02
  0.000E+00  3.882E-01  1.015E+05  0.000E+00  0.000E+00  2.930E+02  2.930E+02
  0.000E+00  3.945E-01  1.015E+05  0.000E+00  0.000E+00  2.930E+02  2.930E+02
  0.000E+00  4.008E-01  1.015E+05  0.000E+00  0.000E+00  2.930E+02  2.930E+02
  0.000E+00  4.072E-01  1.015E+05  0.000E+00  0.000E+00  2.930E+02  2.930E+02
  0.000E+00  4.135E-01  1.014E+05  0.000E+00  0.000E+00  2.930E+02  2.930E+02
  0.000E+00  4.198E-01  1.014E+05  0.000E+00  0.000E+00  2.930E+02  2.930E+02
  0.000E+00  4.261E-01  1.014E+05  0.000E+00  0.000E+00  2.930E+02  2.930E+02
  0.000E+00  4.324E-01  1.014E+05  0.000E+00  0.000E+00  2.930E+02  2.930E+02
  0.000E+00  4.387E-01  1.014E+05  0.000E+00  0.000E+00  2.930E+02  2.930E+02
  0.000E+00  4.450E-01  1.014E+05  0.000E+00  0.000E+00  2.930E+02  2.930E+02
  0.000E+00  4.513E-01  1.014E+05  0.000E+00  0.000E+00  2.930E+02  2.930E+02
  0.000E+00  4.577E-01  1.014E+05  0.000E+00  0.000E+00  2.930E+02  2.930E+02
  0.000E+00  4.640E-01  1.014E+05  0.000E+00  0.000E+00  2.930E+02  2.930E+02
  0.000E+00  4.703E-01  1.014E+05  0.000E+00  0.000E+00  2.930E+02  2.930E+02
  0.000E+00  4.766E-01  1.014E+05  0.000E+00  0.000E+00  2.930E+02  2.930E+02
  0.000E+00  4.829E-01  1.014E+05  0.000E+00  0.000E+00  2.930E+02  2.930E+02
  0.000E+00  4.892E-01  1.013E+05  0.000E+00  0.000E+00  2.930E+02  2.930E+02
  0.000E+00  4.955E-01  1.013E+05  0.000E+00  0.000E+00  2.930E+02  2.930E+02
  0.000E+00  5.018E-01  1.013E+05  0.000E+00  0.000E+00  2.930E+02  2.930E+02
  0.000E+00  5.050E-01  1.013E+05  0.000E+00  0.000E+00  2.930E+02  2.930E+02
  1.417E-02  0.000E+00  1.020E+05  6.714E-07  6.500E-02  2.930E+02  2.931E+02
  1.417E-02  3.156E-03  1.020E+05  6.714E-07  5.639E-02  2.931E+02  2.931E+02
  1.417E-02  9.469E-03  1.020E+05  6.014E-06  5.835E-02  2.934E+02  2.933E+02
  1.417E-02  1.578E-02  1.020E+05  2.428E-07  5.794E-02  2.937E+02  2.937E+02
  1.417E-02  2.209E-02  1.020E+05 -3.800E-07  5.733E-02  2.942E+02  2.941E+02
  1.417E-02  2.841E-02  1.020E+05 -1.834E-07  5.664E-02  2.949E+02  2.949E+02
  1.417E-02  3.472E-02  1.019E+05 -1.486E-07  5.610E-02  2.960E+02  2.960E+02
  1.417E-02  4.103E-02  1.019E+05 -1.054E-07  5.563E-02  2.979E+02  2.978E+02
  1.417E-02  4.734E-02  1.019E+05 -7.578E-08  5.521E-02  3.008E+02  3.007E+02
  1.417E-02  5.366E-02  1.019E+05 -5.310E-08  5.486E-02  3.055E+02  3.053E+02
  1.417E-02  5.997E-02  1.019E+05 -3.713E-08  5.456E-02  3.128E+02  3.125E+02
  1.417E-02  6.628E-02  1.019E+05 -2.584E-08  5.430E-02  3.240E+02  3.236E+02
  1.417E-02  7.259E-02  1.019E+05 -1.745E-08  5.408E-02  3.406E+02  3.400E+02
  1.417E-02  7.891E-02  1.019E+05 -1.080E-08  5.389E-02  3.646E+02  3.637E+02
  1.417E-02  8.522E-02  1.019E+05 -5.134E-09  5.373E-02  3.984E+02  3.972E+02
  1.417E-02  9.153E-02  1.019E+05 -1.024E-09  5.359E-02  4.454E+02  4.436E+02
  1.417E-02  9.784E-02  1.019E+05  2.658E-09  5.350E-02  5.117E+02  5.092E+02
  1.417E-02  1.042E-01  1.019E+05  8.197E-09  5.366E-02  6.138E+02  6.126E+02
  1.417E-02  1.105E-01  1.018E+05  1.325E-08  5.344E-02  5.979E+02  5.984E+02
  1.417E-02  1.168E-01  1.018E+05  2.085E-08  5.336E-02  5.608E+02  5.622E+02
  1.417E-02  1.231E-01  1.018E+05  2.837E-08  5.327E-02  5.136E+02  5.154E+02
  1.417E-02  1.294E-01  1.018E+05  9.404E-09  5.315E-02  4.654E+02  4.673E+02
  1.417E-02  1.357E-01  1.018E+05 -1.148E-08  5.300E-02  4.222E+02  4.239E+02
  1.417E-02  1.420E-01  1.018E+05  8.018E-09  5.283E-02  3.864E+02  3.878E+02
  1.417E-02  1.483E-01  1.018E+05  2.735E-08  5.266E-02  3.584E+02  3.595E+02
  1.417E-02  1.547E-01  1.018E+05  2.044E-08  5.250E-02  3.376E+02  3.384E+02
  1.417E-02  1.610E-01  1.018E+05  1.202E-08  5.235E-02  3.227E+02  3.233E+02
  1.417E-02  1.673E-01  1.018E+05  6.909E-09  5.221E-02  3.124E+02  3.128E+02
  1.417E-02  1.736E-01  1.018E+05  1.745E-09  5.208E-02  3.055E+02  3.058E+02
  1.417E-02  1.799E-01  1.018E+05 -2.618E-09  5.197E-02  3.010E+02  3.012E+02
  1.417E-02  1.862E-01  1.017E+05 -6.353E-09  5.187E-02  2.981E+02  2.983E+02
  1.417E-02  1.925E-01  1.017E+05 -8.268E-09  5.180E-02  2.964E+02  2.964E+02
  1.417E-02  1.988E-01  1.017E+05 -9.910E-09  5.173E-02  2.953E+02  2.953E+02
  1.417E-02  2.052E-01  1.017E+05 -1.100E-08  5.166E-02  2.946E+02  2.946E+02
  1.417E-02  2.115E-01  1.017E+05 -1.080E-08  5.160E-02  2.942E+02  2.942E+02
  1.417E-02  2.178E-01  1.017E+05 -9.395E-09  5.155E-02  2.939E+02  2.939E+02
  1.417E-02  2.241E-01  1.017E+05 -7.654E-09  5.151E-02  2.938E+02  2.938E+02
  1.417E-02  2.304E-01  1.017E+05 -5.870E-09  5.147E-02  2.936E+02  2.936E+02
  1.417E-02  2.367E-01  1.017E+05 -3.488E-09  5.144E-02  2.936E+02  2.936E+02
  1.417E-02  2.430E-01  1.017E+05 -8.736E-10  5.140E-02  2.935E+02  2.935E+02
  1.417E-02  2.493E-01  1.017E+05  8.999E-10  5.137E-02  2.934E+02  2.934E+02
  1.417E-02  2.557E-01  1.017E+05  2.056E-09  5.134E-02  2.934E+02  2.934E+02
  1.417E-02  2.620E-01  1.016E+05  2.828E-09  5.132E-02  2.934E+02  2.934E+02
  1.417E-02  2.683E-01  1.016E+05  3.101E-09  5.129E-02  2.933E+02  2.933E+02
  1.417E-02  2.746E-01  1.016E+05  2.620E-09  5.126E-02  2.933E+02  2.933E+02
  1.417E-02  2.809E-01  1.016E+05  1.829E-09  5.125E-02  2.933E+02  2.933E+02
  1.417E-02  2.872E-01  1.016E+05  1.600E-09  5.123E-02  2.932E+02  2.932E+02
  1.417E-02  2.935E-01  1.016E+05  6.557E-10  5.120E-02  2.932E+02  2.932E+02
  1.417E-02  2.998E-01  1.016E+05 -5.146E-10  5.119E-02  2.932E+02  2.932E+02
  1.417E-02  3.062E-01  1.016E+05 -8.547E-10  5.118E-02  2.932E+02  2.932E+02
  1.417E-02  3.125E-01  1.016E+05 -2.058E-09  5.117E-02  2.932E+02  2.932E+02
  1.417E-02  3.188E-01  1.016E+05 -3.200E-09  5.115E-02  2.932E+02  2.932E+02
  1.417E-02  3.251E-01  1.016E+05 -3.141E-09  5.115E-02  2.931E+02  2.931E+02
  1.417E-02  3.314E-01  1.016E+05 -3.103E-09  5.113E-02  2.931E+02  2.931E+02
  1.417E-02  3.377E-01  1.015E+05 -3.788E-09  5.111E-02  2.931E+02  2.931E+02
  1.417E-02  3.440E-01  1.015E+05 -4.014E-09  5.111E-02  2.931E+02  2.931E+02
  1.417E-02  3.503E-01  1.015E+05 -3.779E-09  5.110E-02  2.931E+02  2.931E+02
  1.417E-02  3.567E-01  1.015E+05 -3.931E-09  5.109E-02  2.931E+02  2.931E+02
  1.417E-02  3.630E-01  1.015E+05 -3.660E-09  5.108E-02  2.931E+02  2.931E+02
  1.417E-02  3.693E-01  1.015E+05 -3.009E-09  5.108E-02  2.931E+02  2.931E+02
  1.417E-02  3.756E-01  1.015E+05 -2.758E-09  5.107E-02  2.931E+02  2.931E+02
  1.417E-02  3.819E-01  1.015E+05 -2.380E-09  5.106E-02  2.931E+02  2.931E+02
  1.417E-02  3.882E-01  1.015E+05 -1.952E-09  5.105E-02  2.930E+02  2.930E+02
  1.417E-02  3.945E-01  1.015E+05 -1.478E-09  5.105E-02  2.930E+02  2.930E+02
  1.417E-02  4.008E-01  1.015E+05 -1.407E-09  5.105E-02  2.930E+02  2.930E+02
  1.417E-02  4.072E-01  1.015E+05 -1.294E-09  5.103E-02  2.930E+02  2.930E+02
  1.417E-02  4.135E-01  1.014E+05 -1.097E-09  5.103E-02  2.930E+02  2.930E+02
  1.417E-02  4.198E-01  1.014E+05 -8.707E-10  5.103E-02  2.930E+02  2.930E+02
  1.417E-02  4.261E-01  1.014E+05 -6.541E-10  5.102E-02  2.930E+02  2.930E+02
  1.417E-02  4.324E-01  1.014E+05 -4.486E-10  5.102E-02  2.930E+02  2.930E+02
  1.417E-02  4.387E-01  1.014E+05 -3.185E-10  5.101E-02  2.930E+02  2.930E+02
  1.417E-02  4.450E-01  1.014E+05 -1.785E-10  5.099E-02  2.930E+02  2.930E+02
  1.417E-02  4.513E-01  1.014E+05  2.385E-11  5.098E-02  2.930E+02  2.930E+02
  1.417E-02  4.577E-01  1.014E+05 -8.498E-11  5.097E-02  2.930E+02  2.930E+02
  1.417E-02  4.640E-01  1.014E+05 -4.624E-10  5.097E-02  2.930E+02  2.930E+02
  1.417E-02  4.703E-01  1.014E+05 -7.392E-10  5.096E-02  2.930E+02  2.930E+02
  1.417E-02  4.766E-01  1.014E+05 -5.711E-10  5.093E-02  2.930E+02  2.930E+02
  1.417E-02  4.829E-01  1.014E+05 -6.180E-11  5.087E-02  2.930E+02  2.930E+02
  1.417E-02  4.892E-01  1.013E+05  1.504E-10  5.110E-02  2.930E+02  2.930E+02
  1.417E-02  4.955E-01  1.013E+05  8.924E-11  5.228E-02  2.930E+02  2.930E+02
  1.417E-02  5.018E-01  1.013E+05  1.001E-10  5.374E-02  2.930E+02  2.930E+02
  1.417E-02  5.050E-01  1.013E+05  1.001E-10  5.374E-02  2.930E+02  2.930E+02
  4.252E-02  0.000E+00  1.020E+05  7.892E-07  6.500E-02  2.930E+02  2.931E+02
  4.252E-02  3.156E-03  1.020E+05  7.892E-07  5.641E-02  2.931E+02  2.931E+02
  4.252E-02  9.469E-03  1.020E+05  1.008E-06  5.835E-02  2.934E+02  2.933E+02
  4.252E-02  1.578E-02  1.020E+05  2.932E-07  5.794E-02  2.937E+02  2.937E+02
  4.252E-02  2.209E-02  1.020E+05 -3.621E-07  5.733E-02  2.942E+02  2.941E+02
  4.252E-02  2.841E-02  1.020E+05 -2.005E-07  5.664E-02  2.949E+02  2.949E+02
  4.252E-02  3.472E-02  1.019E+05 -1.977E-07  5.610E-02  2.960E+02  2.960E+02
  4.252E-02  4.103E-02  1.019E+05 -1.705E-07  5.563E-02  2.979E+02  2.978E+02
  4.252E-02  4.734E-02  1.019E+05 -1.230E-07  5.521E-02  3.008E+02  3.007E+02
  4.252E-02  5.366E-02  1.019E+05 -7.937E-08  5.486E-02  3.055E+02  3.053E+02
  4.252E-02  5.997E-02  1.019E+05 -5.311E-08  5.456E-02  3.128E+02  3.125E+02
  4.252E-02  6.628E-02  1.019E+05 -3.278E-08  5.430E-02  3.240E+02  3.236E+02
  4.252E-02  7.259E-02  1.019E+05 -1.705E-08  5.408E-02  3.406E+02  3.400E+02
  4.252E-02  7.891E-02  1.019E+05 -5.112E-09  5.389E-02  3.646E+02  3.637E+02
  4.252E-02  8.522E-02  1.019E+05  4.229E-09  5.373E-02  3.985E+02  3.972E+02
  4.252E-02  9.153E-02  1.019E+05  1.110E-08  5.359E-02  4.454E+02  4.436E+02
  4.252E-02  9.784E-02  1.019E+05  1.607E-08  5.350E-02  5.117E+02  5.092E+02
  4.252E-02  1.042E-01  1.019E+05  2.224E-08  5.366E-02  6.138E+02  6.126E+02
  4.252E-02  1.105E-01  1.018E+05  2.764E-08  5.344E-02  5.979E+02  5.984E+02
  4.252E-02  1.168E-01  1.018E+05  3.619E-08  5.336E-02  5.608E+02  5.622E+02
  4.252E-02  1.231E-01  1.018E+05  4.493E-08  5.327E-02  5.136E+02  5.154E+02
  4.252E-02  1.294E-01  1.018E+05  2.534E-08  5.315E-02  4.655E+02  4.673E+02
  4.252E-02  1.357E-01  1.018E+05  4.095E-09  5.300E-02  4.222E+02  4.239E+02
  4.252E-02  1.420E-01  1.018E+05  2.751E-08  5.283E-02  3.864E+02  3.878E+02
  4.252E-02  1.483E-01  1.018E+05  5.033E-08  5.266E-02  3.584E+02  3.596E+02
  4.252E-02  1.547E-01  1.018E+05  4.317E-08  5.250E-02  3.376E+02  3.385E+02
  4.252E-02  1.610E-01  1.018E+05  3.295E-08  5.235E-02  3.227E+02  3.233E+02
  4.252E-02  1.673E-01  1.018E+05  2.432E-08  5.221E-02  3.124E+02  3.128E+02
  4.252E-02  1.736E-01  1.018E+05  1.438E-08  5.208E-02  3.055E+02  3.058E+02
  4.252E-02  1.799E-01  1.018E+05  5.747E-09  5.197E-02  3.010E+02  3.012E+02
  4.252E-02  1.862E-01  1.017E+05 -1.819E-09  5.187E-02  2.982E+02  2.983E+02
  4.252E-02  1.925E-01  1.017E+05 -7.439E-09  5.180E-02  2.964E+02  2.964E+02
  4.252E-02  1.988E-01  1.017E+05 -1.135E-08  5.173E-02  2.953E+02  2.953E+02
  4.252E-02  2.052E-01  1.017E+05 -1.310E-08  5.166E-02  2.946E+02  2.946E+02
  4.252E-02  2.115E-01  1.017E+05 -1.266E-08  5.160E-02  2.942E+02  2.942E+02
  4.252E-02  2.178E-01  1.017E+05 -1.008E-08  5.155E-02  2.939E+02  2.939E+02
  4.252E-02  2.241E-01  1.017E+05 -6.804E-09  5.151E-02  2.938E+02  2.938E+02
  4.252E-02  2.304E-01  1.017E+05 -3.383E-09  5.147E-02  2.936E+02  2.937E+02
  4.252E-02  2.367E-01  1.017E+05  3.897E-10  5.144E-02  2.936E+02  2.936E+02
  4.252E-02  2.430E-01  1.017E+05  3.542E-09  5.140E-02  2.935E+02  2.935E+02
  4.252E-02  2.493E-01  1.017E+05  5.779E-09  5.137E-02  2.934E+02  2.935E+02
  4.252E-02  2.557E-01  1.017E+05  7.492E-09  5.134E-02  2.934E+02  2.934E+02
  4.252E-02  2.620E-01  1.016E+05  8.104E-09  5.132E-02  2.934E+02  2.934E+02
  4.252E-02  2.683E-01  1.016E+05  7.697E-09  5.129E-02  2.933E+02  2.933E+02
  4.252E-02  2.746E-01  1.016E+05  6.358E-09  5.126E-02  2.933E+02  2.933E+02
  4.252E-02  2.809E-01  1.016E+05  4.189E-09  5.125E-02  2.933E+02  2.933E+02
  4.252E-02  2.872E-01  1.016E+05  1.946E-09  5.123E-02  2.933E+02  2.933E+02
  4.252E-02  2.935E-01  1.016E+05 -1.071E-09  5.121E-02  2.932E+02  2.932E+02
  4.252E-02  2.998E-01  1.016E+05 -4.662E-09  5.119E-02  2.932E+02  2.932E+02
  4.252E-02  3.062E-01  1.016E+05 -7.638E-09  5.118E-02  2.932E+02  2.932E+02
  4.252E-02  3.125E-01  1.016E+05 -1.303E-08  5.117E-02  2.932E+02  2.932E+02
  4.252E-02  3.188E-01  1.016E+05 -1.645E-08  5.115E-02  2.932E+02  2.932E+02
  4.252E-02  3.251E-01  1.016E+05 -3.201E-08  5.115E-02  2.931E+02  2.931E+02
  4.252E-02  3.314E-01  1.016E+05 -1.696E-08  5.113E-02  2.931E+02  2.931E+02
  4.252E-02  3.377E-01  1.015E+05 -1.543E-08  5.111E-02  2.931E+02  2.931E+02
  4.252E-02  3.440E-01  1.015E+05 -1.220E-08  5.111E-02  2.931E+02  2.931E+02
  4.252E-02  3.503E-01  1.015E+05 -9.992E-09  5.110E-02  2.931E+02  2.931E+02
  4.252E-02  3.567E-01  1.015E+05 -8.346E-09  5.109E-02  2.931E+02  2.931E+02
  4.252E-02  3.630E-01  1.015E+05 -7.338E-09  5.108E-02  2.931E+02  2.931E+02
  4.252E-02  3.693E-01  1.015E+05 -6.295E-09  5.108E-02  2.931E+02  2.931E+02
  4.252E-02  3.756E-01  1.015E+05 -5.376E-09  5.107E-02  2.931E+02  2.931E+02
  4.252E-02  3.819E-01  1.015E+05 -4.598E-09  5.106E-02  2.931E+02  2.931E+02
  4.252E-02  3.882E-01  1.015E+05 -4.262E-09  5.105E-02  2.931E+02  2.931E+02
  4.252E-02  3.945E-01  1.015E+05 -3.510E-09  5.105E-02  2.930E+02  2.930E+02
  4.252E-02  4.008E-01  1.015E+05 -2.651E-09  5.105E-02  2.930E+02  2.930E+02
  4.252E-02  4.072E-01  1.015E+05 -2.162E-09  5.103E-02  2.930E+02  2.930E+02
  4.252E-02  4.135E-01  1.014E+05 -1.813E-09  5.103E-02  2.930E+02  2.930E+02
  4.252E-02  4.198E-01  1.014E+05 -1.441E-09  5.103E-02  2.930E+02  2.930E+02
  4.252E-02  4.261E-01  1.014E+05 -8.728E-10  5.102E-02  2.930E+02  2.930E+02
  4.252E-02  4.324E-01  1.014E+05 -3.245E-10  5.102E-02  2.930E+02  2.930E+02
  4.252E-02  4.387E-01  1.014E+05 -1.624E-10  5.101E-02  2.930E+02  2.930E+02
  4.252E-02  4.450E-01  1.014E+05 -1.528E-11  5.099E-02  2.930E+02  2.930E+02
  4.252E-02  4.513E-01  1.014E+05  1.892E-10  5.098E-02  2.930E+02  2.930E+02
  4.252E-02  4.577E-01  1.014E+05  4.154E-11  5.097E-02  2.930E+02  2.930E+02
  4.252E-02  4.640E-01  1.014E+05 -3.464E-10  5.097E-02  2.930E+02  2.930E+02
  4.252E-02  4.703E-01  1.014E+05 -6.272E-10  5.096E-02  2.930E+02  2.930E+02
  4.252E-02  4.766E-01  1.014E+05 -5.577E-10  5.093E-02  2.930E+02  2.930E+02
  4.252E-02  4.829E-01  1.014E+05  2.582E-11  5.087E-02  2.930E+02  2.930E+02
  4.252E-02  4.892E-01  1.013E+05  1.553E-10  5.110E-02  2.930E+02  2.930E+02
  4.252E-02  4.955E-01  1.013E+05  1.405E-10  5.228E-02  2.930E+02  2.930E+02
  4.252E-02  5.018E-01  1.013E+05  3.997E-10  5.374E-02  2.930E+02  2.930E+02
  4.252E-02  5.050E-01  1.013E+05  3.997E-10  5.374E-02  2.930E+02  2.930E+02
  7.087E-02  0.000E+00  1.020E+05  9.887E-08  6.500E-02  2.930E+02  2.931E+02
  7.087E-02  3.156E-03  1.020E+05  9.887E-08  5.641E-02  2.931E+02  2.931E+02
  7.087E-02  9.469E-03  1.020E+05  8.681E-08  5.835E-02  2.934E+02  2.933E+02
  7.087E-02  1.578E-02  1.020E+05  4.813E-08  5.794E-02  2.937E+02  2.937E+02
  7.087E-02  2.209E-02  1.020E+05  1.671E-08  5.733E-02  2.942E+02  2.941E+02
  7.087E-02  2.841E-02  1.020E+05 -3.024E-08  5.664E-02  2.949E+02  2.949E+02
  7.087E-02  3.472E-02  1.019E+05 -6.042E-08  5.610E-02  2.960E+02  2.960E+02
  7.087E-02  4.103E-02  1.019E+05 -7.596E-08  5.563E-02  2.979E+02  2.978E+02
  7.087E-02  4.734E-02  1.019E+05 -4.165E-08  5.521E-02  3.008E+02  3.007E+02
  7.087E-02  5.366E-02  1.019E+05 -3.280E-08  5.486E-02  3.055E+02  3.053E+02
  7.087E-02  5.997E-02  1.019E+05 -2.180E-08  5.456E-02  3.128E+02  3.125E+02
  7.087E-02  6.628E-02  1.019E+05 -1.290E-08  5.430E-02  3.240E+02  3.236E+02
  7.087E-02  7.259E-02  1.019E+05 -4.533E-09  5.408E-02  3.406E+02  3.400E+02
  7.087E-02  7.891E-02  1.019E+05  1.626E-09  5.389E-02  3.646E+02  3.637E+02
  7.087E-02  8.522E-02  1.019E+05  5.811E-09  5.373E-02  3.984E+02  3.972E+02
  7.087E-02  9.153E-02  1.019E+05  8.998E-09  5.359E-02  4.454E+02  4.436E+02
  7.087E-02  9.784E-02  1.019E+05  1.130E-08  5.350E-02  5.117E+02  5.092E+02
  7.087E-02  1.042E-01  1.019E+05  1.302E-08  5.366E-02  6.138E+02  6.126E+02
  7.087E-02  1.105E-01  1.018E+05  1.435E-08  5.344E-02  5.979E+02  5.984E+02
  7.087E-02  1.168E-01  1.018E+05  1.560E-08  5.336E-02  5.608E+02  5.622E+02
  7.087E-02  1.231E-01  1.018E+05  1.603E-08  5.327E-02  5.136E+02  5.154E+02
  7.087E-02  1.294E-01  1.018E+05  1.362E-08  5.315E-02  4.654E+02  4.673E+02
  7.087E-02  1.357E-01  1.018E+05  1.017E-08  5.300E-02  4.222E+02  4.239E+02
  7.087E-02  1.420E-01  1.018E+05  8.749E-09  5.283E-02  3.864E+02  3.878E+02
  7.087E-02  1.483E-01  1.018E+05  5.541E-09  5.266E-02  3.584E+02  3.596E+02
  7.087E-02  1.547E-01  1.018E+05  3.247E-09  5.250E-02  3.376E+02  3.385E+02
  7.087E-02  1.610E-01  1.018E+05 -1.444E-08  5.235E-02  3.227E+02  3.233E+02
  7.087E-02  1.673E-01  1.018E+05 -3.122E-09  5.221E-02  3.124E+02  3.129E+02
  7.087E-02  1.736E-01  1.018E+05 -2.111E-08  5.208E-02  3.055E+02  3.058E+02
  7.087E-02  1.799E-01  1.018E+05 -8.122E-09  5.197E-02  3.010E+02  3.012E+02
  7.087E-02  1.862E-01  1.017E+05 -8.927E-09  5.187E-02  2.982E+02  2.983E+02
  7.087E-02  1.925E-01  1.017E+05 -7.872E-09  5.180E-02  2.964E+02  2.964E+02
  7.087E-02  1.988E-01  1.017E+05 -7.380E-09  5.173E-02  2.953E+02  2.953E+02
  7.087E-02  2.052E-01  1.017E+05 -5.551E-09  5.166E-02  2.946E+02  2.946E+02
  7.087E-02  2.115E-01  1.017E+05 -2.859E-09  5.160E-02  2.942E+02  2.942E+02
  7.087E-02  2.178E-01  1.017E+05  8.962E-11  5.155E-02  2.939E+02  2.939E+02
  7.087E-02  2.241E-01  1.017E+05  3.160E-09  5.151E-02  2.938E+02  2.938E+02
  7.087E-02  2.304E-01  1.017E+05  5.972E-09  5.147E-02  2.936E+02  2.937E+02
  7.087E-02  2.367E-01  1.017E+05  7.895E-09  5.144E-02  2.936E+02  2.936E+02
  7.087E-02  2.430E-01  1.017E+05  8.808E-09  5.140E-02  2.935E+02  2.935E+02
  7.087E-02  2.493E-01  1.017E+05  9.236E-09  5.137E-02  2.935E+02  2.935E+02
  7.087E-02  2.557E-01  1.017E+05  9.141E-09  5.134E-02  2.934E+02  2.934E+02
  7.087E-02  2.620E-01  1.016E+05  8.193E-09  5.132E-02  2.934E+02  2.934E+02
  7.087E-02  2.683E-01  1.016E+05  6.573E-09  5.129E-02  2.933E+02  2.933E+02
  7.087E-02  2.746E-01  1.016E+05  4.523E-09  5.126E-02  2.933E+02  2.933E+02
  7.087E-02  2.809E-01  1.016E+05  2.351E-09  5.125E-02  2.933E+02  2.933E+02
  7.087E-02  2.872E-01  1.016E+05  5.203E-10  5.123E-02  2.933E+02  2.933E+02
  7.087E-02  2.935E-01  1.016E+05 -2.370E-10  5.121E-02  2.932E+02  2.932E+02
  7.087E-02  2.998E-01  1.016E+05  4.305E-10  5.119E-02  2.932E+02  2.932E+02
  7.087E-02  3.062E-01  1.016E+05  5.148E-09  5.118E-02  2.932E+02  2.932E+02
  7.087E-02  3.125E-01  1.016E+05  1.327E-08  5.117E-02  2.932E+02  2.932E+02
  7.087E-02  3.188E-01  1.016E+05  3.670E-08  5.115E-02  2.932E+02  2.932E+02
  7.087E-02  3.251E-01  1.016E+05  4.252E-08  5.115E-02  2.931E+02  2.931E+02
  7.087E-02  3.314E-01  1.016E+05  4.525E-08  5.113E-02  2.931E+02  2.931E+02
  7.087E-02  3.377E-01  1.015E+05  2.935E-08  5.111E-02  2.931E+02  2.931E+02
  7.087E-02  3.440E-01  1.015E+05  2.395E-08  5.111E-02  2.931E+02  2.931E+02
  7.087E-02  3.503E-01  1.015E+05  1.725E-08  5.110E-02  2.931E+02  2.931E+02
  7.087E-02  3.567E-01  1.015E+05  1.253E-08  5.109E-02  2.931E+02  2.931E+02
  7.087E-02  3.630E-01  1.015E+05  8.692E-09  5.108E-02  2.931E+02  2.931E+02
  7.087E-02  3.693E-01  1.015E+05  5.791E-09  5.108E-02  2.931E+02  2.931E+02
  7.087E-02  3.756E-01  1.015E+05  3.551E-09  5.107E-02  2.931E+02  2.931E+02
  7.087E-02  3.819E-01  1.015E+05  1.585E-09  5.106E-02  2.931E+02  2.931E+02
  7.087E-02  3.882E-01  1.015E+05 -1.342E-10  5.105E-02  2.931E+02  2.931E+02
  7.087E-02  3.945E-01  1.015E+05 -1.023E-09  5.105E-02  2.930E+02  2.930E+02
  7.087E-02  4.008E-01  1.015E+05 -8.225E-10  5.105E-02  2.930E+02  2.930E+02
  7.087E-02  4.072E-01  1.015E+05 -1.034E-09  5.103E-02  2.930E+02  2.930E+02
  7.087E-02  4.135E-01  1.014E+05 -1.011E-09  5.103E-02  2.930E+02  2.930E+02
  7.087E-02  4.198E-01  1.014E+05 -9.643E-10  5.103E-02  2.930E+02  2.930E+02
  7.087E-02  4.261E-01  1.014E+05 -8.932E-10  5.102E-02  2.930E+02  2.930E+02
  7.087E-02  4.324E-01  1.014E+05 -8.632E-10  5.102E-02  2.930E+02  2.930E+02
  7.087E-02  4.387E-01  1.014E+05 -7.974E-10  5.101E-02  2.930E+02  2.930E+02
  7.087E-02  4.450E-01  1.014E+05 -7.030E-10  5.099E-02  2.930E+02  2.930E+02
  7.087E-02  4.513E-01  1.014E+05 -4.281E-10  5.098E-02  2.930E+02  2.930E+02
  7.087E-02  4.577E-01  1.014E+05 -2.325E-10  5.097E-02  2.930E+02  2.930E+02
  7.087E-02  4.640E-01  1.014E+05 -2.683E-10  5.097E-02  2.930E+02  2.930E+02
  7.087E-02  4.703E-01  1.014E+05  1.854E-10  5.096E-02  2.930E+02  2.930E+02
  7.087E-02  4.766E-01  1.014E+05  3.053E-10  5.093E-02  2.930E+02  2.930E+02
  7.087E-02  4.829E-01  1.014E+05 -2.363E-10  5.087E-02  2.930E+02  2.930E+02
  7.087E-02  4.892E-01  1.013E+05 -4.970E-10  5.110E-02  2.930E+02  2.930E+02
  7.087E-02  4.955E-01  1.013E+05 -1.714E-10  5.228E-02  2.930E+02  2.930E+02
  7.087E-02  5.018E-01  1.013E+05  1.912E-10  5.374E-02  2.930E+02  2.930E+02
  7.087E-02  5.050E-01  1.013E+05  1.912E-10  5.374E-02  2.930E+02  2.930E+02
  9.922E-02  0.000E+00  1.020E+05  1.448E-09  6.500E-02  2.930E+02  2.931E+02
  9.922E-02  3.156E-03  1.020E+05  1.448E-09  5.641E-02  2.931E+02  2.931E+02
  9.922E-02  9.469E-03  1.020E+05  7.272E-10  5.835E-02  2.934E+02  2.933E+02
  9.922E-02  1.578E-02  1.020E+05 -4.913E-09  5.794E-02  2.937E+02  2.937E+02
  9.922E-02  2.209E-02  1.020E+05 -1.593E-09  5.733E-02  2.942E+02  2.941E+02
  9.922E-02  2.841E-02  1.020E+05 -3.176E-08  5.664E-02  2.949E+02  2.949E+02
  9.922E-02  3.472E-02  1.019E+05 -4.785E-08  5.610E-02  2.960E+02  2.960E+02
  9.922E-02  4.103E-02  1.019E+05 -7.360E-08  5.563E-02  2.979E+02  2.978E+02
  9.922E-02  4.734E-02  1.019E+05 -7.707E-08  5.521E-02  3.008E+02  3.007E+02
  9.922E-02  5.366E-02  1.019E+05 -7.527E-08  5.486E-02  3.055E+02  3.053E+02
  9.922E-02  5.997E-02  1.019E+05 -5.577E-08  5.456E-02  3.128E+02  3.125E+02
  9.922E-02  6.628E-02  1.019E+05 -4.731E-08  5.430E-02  3.240E+02  3.236E+02
  9.922E-02  7.259E-02  1.019E+05 -3.857E-08  5.408E-02  3.406E+02  3.400E+02
  9.922E-02  7.891E-02  1.019E+05 -3.154E-08  5.389E-02  3.646E+02  3.637E+02
  9.922E-02  8.522E-02  1.019E+05 -2.566E-08  5.373E-02  3.984E+02  3.972E+02
  9.922E-02  9.153E-02  1.019E+05 -2.048E-08  5.359E-02  4.454E+02  4.436E+02
  9.922E-02  9.784E-02  1.019E+05 -1.618E-08  5.350E-02  5.117E+02  5.092E+02
  9.922E-02  1.042E-01  1.019E+05 -1.329E-08  5.366E-02  6.138E+02  6.126E+02
  9.922E-02  1.105E-01  1.018E+05 -1.137E-08  5.344E-02  5.979E+02  5.984E+02
  9.922E-02  1.168E-01  1.018E+05 -1.118E-08  5.336E-02  5.608E+02  5.622E+02
  9.922E-02  1.231E-01  1.018E+05 -1.325E-08  5.327E-02  5.136E+02  5.154E+02
  9.922E-02  1.294E-01  1.018E+05 -1.900E-08  5.315E-02  4.655E+02  4.673E+02
  9.922E-02  1.357E-01  1.018E+05 -2.838E-08  5.300E-02  4.222E+02  4.239E+02
  9.922E-02  1.420E-01  1.018E+05 -5.223E-08  5.283E-02  3.864E+02  3.878E+02
  9.922E-02  1.483E-01  1.018E+05 -7.054E-08  5.266E-02  3.585E+02  3.596E+02
  9.922E-02  1.547E-01  1.018E+05 -4.298E-08  5.250E-02  3.376E+02  3.385E+02
  9.922E-02  1.610E-01  1.018E+05 -8.075E-09  5.235E-02  3.227E+02  3.233E+02
  9.922E-02  1.673E-01  1.018E+05  3.938E-08  5.221E-02  3.124E+02  3.129E+02
  9.922E-02  1.736E-01  1.018E+05  1.692E-08  5.208E-02  3.055E+02  3.058E+02
  9.922E-02  1.799E-01  1.018E+05  1.516E-08  5.197E-02  3.010E+02  3.012E+02
  9.922E-02  1.862E-01  1.017E+05  1.131E-08  5.187E-02  2.982E+02  2.983E+02
  9.922E-02  1.925E-01  1.017E+05  1.181E-08  5.180E-02  2.964E+02  2.964E+02
  9.922E-02  1.988E-01  1.017E+05  1.294E-08  5.173E-02  2.953E+02  2.953E+02
  9.922E-02  2.052E-01  1.017E+05  1.389E-08  5.166E-02  2.946E+02  2.946E+02
  9.922E-02  2.115E-01  1.017E+05  1.411E-08  5.160E-02  2.942E+02  2.942E+02
  9.922E-02  2.178E-01  1.017E+05  1.349E-08  5.155E-02  2.939E+02  2.939E+02
  9.922E-02  2.241E-01  1.017E+05  1.271E-08  5.151E-02  2.938E+02  2.938E+02
  9.922E-02  2.304E-01  1.017E+05  1.182E-08  5.147E-02  2.936E+02  2.936E+02
  9.922E-02  2.367E-01  1.017E+05  9.683E-09  5.144E-02  2.936E+02  2.936E+02
  9.922E-02  2.430E-01  1.017E+05  7.618E-09  5.140E-02  2.935E+02  2.935E+02
  9.922E-02  2.493E-01  1.017E+05  4.981E-09  5.137E-02  2.934E+02  2.935E+02
  9.922E-02  2.557E-01  1.017E+05  1.292E-09  5.134E-02  2.934E+02  2.934E+02
  9.922E-02  2.620E-01  1.016E+05 -3.062E-09  5.132E-02  2.934E+02  2.934E+02
  9.922E-02  2.683E-01  1.016E+05 -8.512E-09  5.129E-02  2.933E+02  2.933E+02
  9.922E-02  2.746E-01  1.016E+05 -1.600E-08  5.126E-02  2.933E+02  2.933E+02
  9.922E-02  2.809E-01  1.016E+05 -2.577E-08  5.125E-02  2.933E+02  2.933E+02
  9.922E-02  2.872E-01  1.016E+05 -3.998E-08  5.123E-02  2.933E+02  2.933E+02
  9.922E-02  2.935E-01  1.016E+05 -5.744E-08  5.121E-02  2.932E+02  2.932E+02
  9.922E-02  2.998E-01  1.016E+05 -9.313E-08  5.119E-02  2.932E+02  2.932E+02
  9.922E-02  3.062E-01  1.016E+05 -1.036E-07  5.118E-02  2.932E+02  2.932E+02
  9.922E-02  3.125E-01  1.016E+05 -2.299E-07  5.117E-02  2.932E+02  2.932E+02
  9.922E-02  3.188E-01  1.016E+05  5.041E-07  5.115E-02  2.932E+02  2.932E+02
  9.922E-02  3.251E-01  1.016E+05  1.461E-06  5.115E-02  2.931E+02  2.931E+02
  9.922E-02  3.314E-01  1.016E+05  5.719E-07  5.113E-02  2.931E+02  2.931E+02
  9.922E-02  3.377E-01  1.015E+05 -1.028E-07  5.111E-02  2.931E+02  2.931E+02