VARIABLES="XP","YP","P","U","V","TS","TF"
ZONE T="Zone 001"I=    62 J=    22 F=POINT
  0.000E+00  0.000E+00 -3.789E-07  0.000E+00  0.000E+00  2.930E+02  2.934E+02
  0.000E+00  4.208E-03 -3.789E-07  0.000E+00  0.000E+00  2.930E+02  2.934E+02
  0.000E+00  1.262E-02 -3.813E-07  0.000E+00  0.000E+00  2.930E+02  2.941E+02
  0.000E+00  2.104E-02 -3.823E-07  0.000E+00  0.000E+00  2.930E+02  2.950E+02
  0.000E+00  2.946E-02 -3.829E-07  0.000E+00  0.000E+00  2.930E+02  2.962E+02
  0.000E+00  3.787E-02 -3.832E-07  0.000E+00  0.000E+00  2.930E+02  2.978E+02
  0.000E+00  4.629E-02 -3.834E-07  0.000E+00  0.000E+00  2.930E+02  2.998E+02
  0.000E+00  5.471E-02 -3.836E-07  0.000E+00  0.000E+00  2.930E+02  3.022E+02
  0.000E+00  6.313E-02 -3.837E-07  0.000E+00  0.000E+00  2.930E+02  3.049E+02
  0.000E+00  7.154E-02 -3.838E-07  0.000E+00  0.000E+00  2.930E+02  3.079E+02
  0.000E+00  7.996E-02 -3.839E-07  0.000E+00  0.000E+00  2.930E+02  3.108E+02
  0.000E+00  8.838E-02 -3.839E-07  0.000E+00  0.000E+00  2.930E+02  3.133E+02
  0.000E+00  9.679E-02 -3.840E-07  0.000E+00  0.000E+00  2.930E+02  3.149E+02
  0.000E+00  1.052E-01 -3.840E-07  0.000E+00  0.000E+00  2.931E+02  3.155E+02
  0.000E+00  1.136E-01 -3.840E-07  0.000E+00  0.000E+00  2.930E+02  3.149E+02
  0.000E+00  1.220E-01 -3.840E-07  0.000E+00  0.000E+00  2.930E+02  3.133E+02
  0.000E+00  1.305E-01 -3.840E-07  0.000E+00  0.000E+00  2.930E+02  3.108E+02
  0.000E+00  1.389E-01 -3.840E-07  0.000E+00  0.000E+00  2.930E+02  3.079E+02
  0.000E+00  1.473E-01 -3.840E-07  0.000E+00  0.000E+00  2.930E+02  3.050E+02
  0.000E+00  1.557E-01 -3.840E-07  0.000E+00  0.000E+00  2.930E+02  3.022E+02
  0.000E+00  1.641E-01 -3.839E-07  0.000E+00  0.000E+00  2.930E+02  2.998E+02
  0.000E+00  1.725E-01 -3.839E-07  0.000E+00  0.000E+00  2.930E+02  2.979E+02
  0.000E+00  1.810E-01 -3.838E-07  0.000E+00  0.000E+00  2.930E+02  2.964E+02
  0.000E+00  1.894E-01 -3.837E-07  0.000E+00  0.000E+00  2.930E+02  2.953E+02
  0.000E+00  1.978E-01 -3.836E-07  0.000E+00  0.000E+00  2.930E+02  2.945E+02
  0.000E+00  2.062E-01 -3.835E-07  0.000E+00  0.000E+00  2.930E+02  2.939E+02
  0.000E+00  2.146E-01 -3.834E-07  0.000E+00  0.000E+00  2.930E+02  2.936E+02
  0.000E+00  2.230E-01 -3.832E-07  0.000E+00  0.000E+00  2.930E+02  2.934E+02
  0.000E+00  2.315E-01 -3.830E-07  0.000E+00  0.000E+00  2.930E+02  2.932E+02
  0.000E+00  2.399E-01 -3.827E-07  0.000E+00  0.000E+00  2.930E+02  2.931E+02
  0.000E+00  2.483E-01 -3.824E-07  0.000E+00  0.000E+00  2.930E+02  2.931E+02
  0.000E+00  2.567E-01 -3.820E-07  0.000E+00  0.000E+00  2.930E+02  2.930E+02
  0.000E+00  2.651E-01 -3.816E-07  0.000E+00  0.000E+00  2.930E+02  2.930E+02
  0.000E+00  2.735E-01 -3.810E-07  0.000E+00  0.000E+00  2.930E+02  2.930E+02
  0.000E+00  2.820E-01 -3.804E-07  0.000E+00  0.000E+00  2.930E+02  2.930E+02
  0.000E+00  2.904E-01 -3.797E-07  0.000E+00  0.000E+00  2.930E+02  2.930E+02
  0.000E+00  2.988E-01 -3.788E-07  0.000E+00  0.000E+00  2.930E+02  2.930E+02
  0.000E+00  3.072E-01 -3.777E-07  0.000E+00  0.000E+00  2.930E+02  2.930E+02
  0.000E+00  3.156E-01 -3.765E-07  0.000E+00  0.000E+00  2.930E+02  2.930E+02
  0.000E+00  3.240E-01 -3.750E-07  0.000E+00  0.000E+00  2.930E+02  2.930E+02
  0.000E+00  3.325E-01 -3.732E-07  0.000E+00  0.000E+00  2.930E+02  2.931E+02
  0.000E+00  3.409E-01 -3.712E-07  0.000E+00  0.000E+00  2.930E+02  2.931E+02
  0.000E+00  3.493E-01 -3.687E-07  0.000E+00  0.000E+00  2.930E+02  2.932E+02
  0.000E+00  3.577E-01 -3.657E-07  0.000E+00  0.000E+00  2.930E+02  2.933E+02
  0.000E+00  3.661E-01 -3.622E-07  0.000E+00  0.000E+00  2.930E+02  2.935E+02
  0.000E+00  3.745E-01 -3.580E-07  0.000E+00  0.000E+00  2.930E+02  2.939E+02
  0.000E+00  3.830E-01 -3.530E-07  0.000E+00  0.000E+00  2.930E+02  2.944E+02
  0.000E+00  3.914E-01 -3.471E-07  0.000E+00  0.000E+00  2.930E+02  2.954E+02
  0.000E+00  3.998E-01 -3.401E-07  0.000E+00  0.000E+00  2.930E+02  2.968E+02
  0.000E+00  4.082E-01 -3.317E-07  0.000E+00  0.000E+00  2.930E+02  2.990E+02
  0.000E+00  4.166E-01 -3.217E-07  0.000E+00  0.000E+00  2.930E+02  3.023E+02
  0.000E+00  4.250E-01 -3.097E-07  0.000E+00  0.000E+00  2.930E+02  3.070E+02
  0.000E+00  4.335E-01 -2.953E-07  0.000E+00  0.000E+00  2.930E+02  3.137E+02
  0.000E+00  4.419E-01 -2.779E-07  0.000E+00  0.000E+00  2.930E+02  3.229E+02
  0.000E+00  4.503E-01 -2.567E-07  0.000E+00  0.000E+00  2.930E+02  3.351E+02
  0.000E+00  4.587E-01 -2.303E-07  0.000E+00  0.000E+00  2.930E+02  3.508E+02
  0.000E+00  4.671E-01 -1.969E-07  0.000E+00  0.000E+00  2.930E+02  3.702E+02
  0.000E+00  4.755E-01 -1.537E-07  0.000E+00  0.000E+00  2.930E+02  3.935E+02
  0.000E+00  4.840E-01 -9.816E-08  0.000E+00  0.000E+00  2.930E+02  4.204E+02
  0.000E+00  4.924E-01 -3.472E-08  0.000E+00  0.000E+00  2.934E+02  4.503E+02
  0.000E+00  5.008E-01  1.139E-08  0.000E+00  0.000E+00  3.097E+02  4.821E+02
  0.000E+00  5.050E-01  1.139E-08  0.000E+00  0.000E+00  3.097E+02  4.821E+02
  4.000E-03  0.000E+00 -3.128E-07 -1.317E-07  0.000E+00  2.930E+02  2.930E+02
  4.000E-03  4.208E-03 -3.141E-07 -1.317E-07  2.479E-09  2.930E+02  2.934E+02
  4.000E-03  1.262E-02 -3.155E-07 -1.336E-07  1.343E-09  2.930E+02  2.941E+02
  4.000E-03  2.104E-02 -3.162E-07 -1.343E-07  7.173E-10  2.930E+02  2.950E+02
  4.000E-03  2.946E-02 -3.166E-07 -1.346E-07  4.328E-10  2.930E+02  2.962E+02
  4.000E-03  3.787E-02 -3.169E-07 -1.347E-07  2.971E-10  2.930E+02  2.978E+02
  4.000E-03  4.629E-02 -3.170E-07 -1.347E-07  2.206E-10  2.930E+02  2.998E+02
  4.000E-03  5.471E-02 -3.172E-07 -1.348E-07  1.703E-10  2.930E+02  3.022E+02
  4.000E-03  6.313E-02 -3.173E-07 -1.348E-07  1.340E-10  2.930E+02  3.049E+02
  4.000E-03  7.154E-02 -3.174E-07 -1.348E-07  1.061E-10  2.930E+02  3.079E+02
  4.000E-03  7.996E-02 -3.175E-07 -1.348E-07  8.376E-11  2.930E+02  3.108E+02
  4.000E-03  8.838E-02 -3.175E-07 -1.348E-07  6.512E-11  2.930E+02  3.133E+02
  4.000E-03  9.679E-02 -3.176E-07 -1.348E-07  4.907E-11  2.930E+02  3.149E+02
  4.000E-03  1.052E-01 -3.176E-07 -1.348E-07  3.483E-11  2.931E+02  3.155E+02
  4.000E-03  1.136E-01 -3.176E-07 -1.348E-07  2.179E-11  2.930E+02  3.149E+02
  4.000E-03  1.220E-01 -3.177E-07 -1.348E-07  9.464E-12  2.930E+02  3.133E+02
  4.000E-03  1.305E-01 -3.177E-07 -1.348E-07 -2.555E-12  2.930E+02  3.108E+02
  4.000E-03  1.389E-01 -3.176E-07 -1.348E-07 -1.465E-11  2.930E+02  3.079E+02
  4.000E-03  1.473E-01 -3.176E-07 -1.348E-07 -2.723E-11  2.930E+02  3.050E+02
  4.000E-03  1.557E-01 -3.176E-07 -1.348E-07 -4.068E-11  2.930E+02  3.022E+02
  4.000E-03  1.641E-01 -3.176E-07 -1.348E-07 -5.535E-11  2.930E+02  2.998E+02
  4.000E-03  1.725E-01 -3.175E-07 -1.348E-07 -7.172E-11  2.930E+02  2.979E+02
  4.000E-03  1.810E-01 -3.175E-07 -1.348E-07 -9.025E-11  2.930E+02  2.964E+02
  4.000E-03  1.894E-01 -3.174E-07 -1.348E-07 -1.115E-10  2.930E+02  2.953E+02
  4.000E-03  1.978E-01 -3.173E-07 -1.347E-07 -1.361E-10  2.930E+02  2.945E+02
  4.000E-03  2.062E-01 -3.172E-07 -1.347E-07 -1.648E-10  2.930E+02  2.939E+02
  4.000E-03  2.146E-01 -3.170E-07 -1.347E-07 -1.984E-10  2.930E+02  2.936E+02
  4.000E-03  2.230E-01 -3.169E-07 -1.347E-07 -2.380E-10  2.930E+02  2.934E+02
  4.000E-03  2.315E-01 -3.167E-07 -1.346E-07 -2.848E-10  2.930E+02  2.932E+02
  4.000E-03  2.399E-01 -3.164E-07 -1.346E-07 -3.400E-10  2.930E+02  2.931E+02
  4.000E-03  2.483E-01 -3.161E-07 -1.345E-07 -4.054E-10  2.930E+02  2.931E+02
  4.000E-03  2.567E-01 -3.158E-07 -1.345E-07 -4.830E-10  2.930E+02  2.930E+02
  4.000E-03  2.651E-01 -3.154E-07 -1.344E-07 -5.750E-10  2.930E+02  2.930E+02
  4.000E-03  2.735E-01 -3.149E-07 -1.343E-07 -6.841E-10  2.930E+02  2.930E+02
  4.000E-03  2.820E-01 -3.143E-07 -1.342E-07 -8.137E-10  2.930E+02  2.930E+02
  4.000E-03  2.904E-01 -3.136E-07 -1.341E-07 -9.675E-10  2.930E+02  2.930E+02
  4.000E-03  2.988E-01 -3.128E-07 -1.340E-07 -1.150E-09  2.930E+02  2.930E+02
  4.000E-03  3.072E-01 -3.118E-07 -1.338E-07 -1.367E-09  2.930E+02  2.930E+02
  4.000E-03  3.156E-01 -3.107E-07 -1.336E-07 -1.625E-09  2.930E+02  2.930E+02
  4.000E-03  3.240E-01 -3.093E-07 -1.334E-07 -1.931E-09  2.930E+02  2.930E+02
  4.000E-03  3.325E-01 -3.077E-07 -1.331E-07 -2.295E-09  2.930E+02  2.931E+02
  4.000E-03  3.409E-01 -3.057E-07 -1.328E-07 -2.727E-09  2.930E+02  2.931E+02
  4.000E-03  3.493E-01 -3.034E-07 -1.324E-07 -3.241E-09  2.930E+02  2.932E+02
  4.000E-03  3.577E-01 -3.007E-07 -1.320E-07 -3.852E-09  2.930E+02  2.933E+02
  4.000E-03  3.661E-01 -2.975E-07 -1.315E-07 -4.578E-09  2.930E+02  2.935E+02
  4.000E-03  3.745E-01 -2.936E-07 -1.308E-07 -5.441E-09  2.930E+02  2.939E+02
  4.000E-03  3.830E-01 -2.890E-07 -1.301E-07 -6.470E-09  2.930E+02  2.944E+02
  4.000E-03  3.914E-01 -2.835E-07 -1.292E-07 -7.696E-09  2.930E+02  2.954E+02
  4.000E-03  3.998E-01 -2.770E-07 -1.281E-07 -9.162E-09  2.930E+02  2.968E+02
  4.000E-03  4.082E-01 -2.693E-07 -1.268E-07 -1.092E-08  2.930E+02  2.990E+02
  4.000E-03  4.166E-01 -2.600E-07 -1.252E-07 -1.303E-08  2.930E+02  3.023E+02
  4.000E-03  4.250E-01 -2.490E-07 -1.232E-07 -1.560E-08  2.930E+02  3.070E+02
  4.000E-03  4.335E-01 -2.358E-07 -1.208E-07 -1.874E-08  2.930E+02  3.137E+02
  4.000E-03  4.419E-01 -2.199E-07 -1.178E-07 -2.263E-08  2.930E+02  3.229E+02
  4.000E-03  4.503E-01 -2.006E-07 -1.138E-07 -2.763E-08  2.930E+02  3.351E+02
  4.000E-03  4.587E-01 -1.769E-07 -1.084E-07 -3.427E-08  2.930E+02  3.508E+02
  4.000E-03  4.671E-01 -1.472E-07 -1.006E-07 -4.294E-08  2.930E+02  3.702E+02
  4.000E-03  4.755E-01 -1.100E-07 -8.822E-08 -5.245E-08  2.930E+02  3.935E+02
  4.000E-03  4.840E-01 -6.551E-08 -6.567E-08 -5.759E-08  2.930E+02  4.204E+02
  4.000E-03  4.924E-01 -2.011E-08 -2.918E-08 -4.691E-08  2.934E+02  4.503E+02
  4.000E-03  5.008E-01  7.941E-09  6.161E-09 -8.059E-09  3.097E+02  4.821E+02
  4.000E-03  5.050E-01  0.000E+00  0.000E+00 -8.059E-09  2.930E+02  2.930E+02
  1.200E-02  0.000E+00 -2.477E-07 -7.203E-08  0.000E+00  2.930E+02  2.930E+02
  1.200E-02  4.208E-03 -2.480E-07 -7.203E-08  7.004E-10  2.930E+02  2.934E+02
  1.200E-02  1.262E-02 -2.484E-07 -7.292E-08  4.655E-10  2.930E+02  2.941E+02
  1.200E-02  2.104E-02 -2.487E-07 -7.331E-08  3.944E-10  2.930E+02  2.950E+02
  1.200E-02  2.946E-02 -2.490E-07 -7.347E-08  3.197E-10  2.930E+02  2.962E+02
  1.200E-02  3.787E-02 -2.492E-07 -7.354E-08  2.503E-10  2.930E+02  2.978E+02
  1.200E-02  4.629E-02 -2.494E-07 -7.358E-08  1.964E-10  2.930E+02  2.998E+02
  1.200E-02  5.471E-02 -2.495E-07 -7.360E-08  1.561E-10  2.930E+02  3.022E+02
  1.200E-02  6.313E-02 -2.496E-07 -7.362E-08  1.251E-10  2.930E+02  3.049E+02
  1.200E-02  7.154E-02 -2.497E-07 -7.363E-08  1.004E-10  2.930E+02  3.079E+02
  1.200E-02  7.996E-02 -2.498E-07 -7.364E-08  8.004E-11  2.930E+02  3.108E+02
  1.200E-02  8.838E-02 -2.498E-07 -7.364E-08  6.277E-11  2.930E+02  3.133E+02
  1.200E-02  9.679E-02 -2.499E-07 -7.364E-08  4.774E-11  2.930E+02  3.149E+02
  1.200E-02  1.052E-01 -2.499E-07 -7.365E-08  3.431E-11  2.931E+02  3.155E+02
  1.200E-02  1.136E-01 -2.499E-07 -7.365E-08  2.197E-11  2.930E+02  3.149E+02
  1.200E-02  1.220E-01 -2.499E-07 -7.365E-08  1.030E-11  2.930E+02  3.133E+02
  1.200E-02  1.305E-01 -2.499E-07 -7.365E-08 -1.065E-12  2.930E+02  3.108E+02
  1.200E-02  1.389E-01 -2.499E-07 -7.364E-08 -1.250E-11  2.930E+02  3.079E+02
  1.200E-02  1.473E-01 -2.499E-07 -7.364E-08 -2.437E-11  2.930E+02  3.050E+02
  1.200E-02  1.557E-01 -2.499E-07 -7.364E-08 -3.698E-11  2.930E+02  3.022E+02
  1.200E-02  1.641E-01 -2.499E-07 -7.363E-08 -5.073E-11  2.930E+02  2.998E+02
  1.200E-02  1.725E-01 -2.498E-07 -7.363E-08 -6.605E-11  2.930E+02  2.979E+02
  1.200E-02  1.810E-01 -2.498E-07 -7.362E-08 -8.338E-11  2.930E+02  2.964E+02
  1.200E-02  1.894E-01 -2.497E-07 -7.361E-08 -1.032E-10  2.930E+02  2.953E+02
  1.200E-02  1.978E-01 -2.496E-07 -7.360E-08 -1.262E-10  2.930E+02  2.945E+02
  1.200E-02  2.062E-01 -2.495E-07 -7.359E-08 -1.530E-10  2.930E+02  2.939E+02
  1.200E-02  2.146E-01 -2.494E-07 -7.358E-08 -1.844E-10  2.930E+02  2.936E+02
  1.200E-02  2.230E-01 -2.492E-07 -7.356E-08 -2.213E-10  2.930E+02  2.934E+02
  1.200E-02  2.315E-01 -2.490E-07 -7.354E-08 -2.648E-10  2.930E+02  2.932E+02
  1.200E-02  2.399E-01 -2.488E-07 -7.351E-08 -3.163E-10  2.930E+02  2.931E+02
  1.200E-02  2.483E-01 -2.485E-07 -7.348E-08 -3.773E-10  2.930E+02  2.931E+02
  1.200E-02  2.567E-01 -2.482E-07 -7.345E-08 -4.496E-10  2.930E+02  2.930E+02
  1.200E-02  2.651E-01 -2.479E-07 -7.340E-08 -5.354E-10  2.930E+02  2.930E+02
  1.200E-02  2.735E-01 -2.474E-07 -7.335E-08 -6.372E-10  2.930E+02  2.930E+02
  1.200E-02  2.820E-01 -2.469E-07 -7.329E-08 -7.581E-10  2.930E+02  2.930E+02
  1.200E-02  2.904E-01 -2.463E-07 -7.322E-08 -9.017E-10  2.930E+02  2.930E+02
  1.200E-02  2.988E-01 -2.455E-07 -7.314E-08 -1.072E-09  2.930E+02  2.930E+02
  1.200E-02  3.072E-01 -2.446E-07 -7.304E-08 -1.275E-09  2.930E+02  2.930E+02
  1.200E-02  3.156E-01 -2.436E-07 -7.292E-08 -1.515E-09  2.930E+02  2.930E+02
  1.200E-02  3.240E-01 -2.423E-07 -7.278E-08 -1.801E-09  2.930E+02  2.930E+02
  1.200E-02  3.325E-01 -2.408E-07 -7.262E-08 -2.141E-09  2.930E+02  2.931E+02
  1.200E-02  3.409E-01 -2.390E-07 -7.242E-08 -2.545E-09  2.930E+02  2.931E+02
  1.200E-02  3.493E-01 -2.369E-07 -7.219E-08 -3.024E-09  2.930E+02  2.932E+02
  1.200E-02  3.577E-01 -2.344E-07 -7.191E-08 -3.594E-09  2.930E+02  2.933E+02
  1.200E-02  3.661E-01 -2.314E-07 -7.158E-08 -4.271E-09  2.930E+02  2.935E+02
  1.200E-02  3.745E-01 -2.279E-07 -7.119E-08 -5.077E-09  2.930E+02  2.939E+02
  1.200E-02  3.830E-01 -2.237E-07 -7.072E-08 -6.034E-09  2.930E+02  2.944E+02
  1.200E-02  3.914E-01 -2.187E-07 -7.016E-08 -7.175E-09  2.930E+02  2.954E+02
  1.200E-02  3.998E-01 -2.127E-07 -6.949E-08 -8.533E-09  2.930E+02  2.968E+02
  1.200E-02  4.082E-01 -2.056E-07 -6.868E-08 -1.016E-08  2.930E+02  2.990E+02
  1.200E-02  4.166E-01 -1.972E-07 -6.771E-08 -1.210E-08  2.930E+02  3.023E+02
  1.200E-02  4.250E-01 -1.872E-07 -6.651E-08 -1.443E-08  2.930E+02  3.070E+02
  1.200E-02  4.335E-01 -1.752E-07 -6.502E-08 -1.725E-08  2.930E+02  3.137E+02
  1.200E-02  4.419E-01 -1.608E-07 -6.312E-08 -2.069E-08  2.930E+02  3.229E+02
  1.200E-02  4.503E-01 -1.436E-07 -6.065E-08 -2.500E-08  2.930E+02  3.350E+02
  1.200E-02  4.587E-01 -1.226E-07 -5.730E-08 -3.052E-08  2.930E+02  3.507E+02
  1.200E-02  4.671E-01 -9.695E-08 -5.242E-08 -3.696E-08  2.930E+02  3.702E+02
  1.200E-02  4.755E-01 -6.617E-08 -4.457E-08 -4.176E-08  2.930E+02  3.935E+02
  1.200E-02  4.840E-01 -3.319E-08 -3.145E-08 -3.937E-08  2.930E+02  4.204E+02
  1.200E-02  4.924E-01 -6.132E-09 -1.271E-08 -2.513E-08  2.934E+02  4.502E+02
  1.200E-02  5.008E-01  5.043E-09  3.019E-09 -9.484E-10  3.097E+02  4.820E+02
  1.200E-02  5.050E-01  0.000E+00  0.000E+00 -9.484E-10  2.930E+02  2.930E+02
  2.000E-02  0.000E+00 -2.095E-07 -4.715E-08  0.000E+00  2.930E+02  2.930E+02
  2.000E-02  4.208E-03 -2.096E-07 -4.715E-08  1.799E-10  2.930E+02  2.934E+02
  2.000E-02  1.262E-02 -2.097E-07 -4.738E-08  1.535E-10  2.930E+02  2.941E+02
  2.000E-02  2.104E-02 -2.098E-07 -4.755E-08  2.061E-10  2.930E+02  2.950E+02
  2.000E-02  2.946E-02 -2.100E-07 -4.767E-08  2.198E-10  2.930E+02  2.962E+02
  2.000E-02  3.787E-02 -2.102E-07 -4.774E-08  1.990E-10  2.930E+02  2.978E+02
  2.000E-02  4.629E-02 -2.103E-07 -4.777E-08  1.680E-10  2.930E+02  2.998E+02
  2.000E-02  5.471E-02 -2.104E-07 -4.780E-08  1.386E-10  2.930E+02  3.022E+02
  2.000E-02  6.313E-02 -2.105E-07 -4.781E-08  1.135E-10  2.930E+02  3.050E+02
  2.000E-02  7.154E-02 -2.106E-07 -4.783E-08  9.236E-11  2.930E+02  3.079E+02
  2.000E-02  7.996E-02 -2.107E-07 -4.783E-08  7.433E-11  2.930E+02  3.108E+02
  2.000E-02  8.838E-02 -2.107E-07 -4.784E-08  5.871E-11  2.930E+02  3.133E+02
  2.000E-02  9.679E-02 -2.107E-07 -4.784E-08  4.493E-11  2.930E+02  3.149E+02
  2.000E-02  1.052E-01 -2.108E-07 -4.785E-08  3.251E-11  2.931E+02  3.155E+02
  2.000E-02  1.136E-01 -2.108E-07 -4.785E-08  2.102E-11  2.930E+02  3.149E+02
  2.000E-02  1.220E-01 -2.108E-07 -4.785E-08  1.014E-11  2.930E+02  3.133E+02
  2.000E-02  1.305E-01 -2.108E-07 -4.785E-08 -4.766E-13  2.930E+02  3.108E+02
  2.000E-02  1.389E-01 -2.108E-07 -4.785E-08 -1.116E-11  2.930E+02  3.079E+02
  2.000E-02  1.473E-01 -2.108E-07 -4.785E-08 -2.224E-11  2.930E+02  3.050E+02
  2.000E-02  1.557E-01 -2.108E-07 -4.784E-08 -3.401E-11  2.930E+02  3.022E+02
  2.000E-02  1.641E-01 -2.107E-07 -4.784E-08 -4.685E-11  2.930E+02  2.998E+02
  2.000E-02  1.725E-01 -2.107E-07 -4.784E-08 -6.112E-11  2.930E+02  2.979E+02
  2.000E-02  1.810E-01 -2.106E-07 -4.783E-08 -7.724E-11  2.930E+02  2.964E+02
  2.000E-02  1.894E-01 -2.106E-07 -4.782E-08 -9.574E-11  2.930E+02  2.953E+02
  2.000E-02  1.978E-01 -2.105E-07 -4.781E-08 -1.171E-10  2.930E+02  2.945E+02
  2.000E-02  2.062E-01 -2.104E-07 -4.780E-08 -1.420E-10  2.930E+02  2.939E+02
  2.000E-02  2.146E-01 -2.103E-07 -4.779E-08 -1.712E-10  2.930E+02  2.936E+02
  2.000E-02  2.230E-01 -2.101E-07 -4.777E-08 -2.056E-10  2.930E+02  2.934E+02
  2.000E-02  2.315E-01 -2.100E-07 -4.775E-08 -2.461E-10  2.930E+02  2.932E+02
  2.000E-02  2.399E-01 -2.098E-07 -4.773E-08 -2.940E-10  2.930E+02  2.931E+02
  2.000E-02  2.483E-01 -2.095E-07 -4.770E-08 -3.507E-10  2.930E+02  2.931E+02
  2.000E-02  2.567E-01 -2.092E-07 -4.767E-08 -4.180E-10  2.930E+02  2.930E+02
  2.000E-02  2.651E-01 -2.089E-07 -4.763E-08 -4.978E-10  2.930E+02  2.930E+02
  2.000E-02  2.735E-01 -2.085E-07 -4.759E-08 -5.926E-10  2.930E+02  2.930E+02
  2.000E-02  2.820E-01 -2.080E-07 -4.753E-08 -7.050E-10  2.930E+02  2.930E+02
  2.000E-02  2.904E-01 -2.074E-07 -4.747E-08 -8.386E-10  2.930E+02  2.930E+02
  2.000E-02  2.988E-01 -2.067E-07 -4.739E-08 -9.973E-10  2.930E+02  2.930E+02
  2.000E-02  3.072E-01 -2.059E-07 -4.730E-08 -1.186E-09  2.930E+02  2.930E+02
  2.000E-02  3.156E-01 -2.049E-07 -4.720E-08 -1.410E-09  2.930E+02  2.930E+02
  2.000E-02  3.240E-01 -2.037E-07 -4.707E-08 -1.676E-09  2.930E+02  2.930E+02
  2.000E-02  3.325E-01 -2.023E-07 -4.692E-08 -1.992E-09  2.930E+02  2.931E+02
  2.000E-02  3.409E-01 -2.007E-07 -4.674E-08 -2.368E-09  2.930E+02  2.931E+02
  2.000E-02  3.493E-01 -1.987E-07 -4.652E-08 -2.814E-09  2.930E+02  2.932E+02
  2.000E-02  3.577E-01 -1.964E-07 -4.627E-08 -3.345E-09  2.930E+02  2.933E+02
  2.000E-02  3.661E-01 -1.936E-07 -4.597E-08 -3.975E-09  2.930E+02  2.935E+02
  2.000E-02  3.745E-01 -1.903E-07 -4.561E-08 -4.724E-09  2.930E+02  2.939E+02
  2.000E-02  3.830E-01 -1.864E-07 -4.518E-08 -5.613E-09  2.930E+02  2.944E+02
  2.000E-02  3.914E-01 -1.817E-07 -4.467E-08 -6.671E-09  2.930E+02  2.953E+02
  2.000E-02  3.998E-01 -1.762E-07 -4.406E-08 -7.928E-09  2.930E+02  2.968E+02
  2.000E-02  4.082E-01 -1.696E-07 -4.332E-08 -9.425E-09  2.930E+02  2.990E+02
  2.000E-02  4.166E-01 -1.618E-07 -4.243E-08 -1.121E-08  2.930E+02  3.022E+02
  2.000E-02  4.250E-01 -1.525E-07 -4.134E-08 -1.333E-08  2.930E+02  3.069E+02
  2.000E-02  4.335E-01 -1.415E-07 -3.999E-08 -1.587E-08  2.930E+02  3.136E+02
  2.000E-02  4.419E-01 -1.283E-07 -3.829E-08 -1.891E-08  2.930E+02  3.228E+02
  2.000E-02  4.503E-01 -1.126E-07 -3.609E-08 -2.261E-08  2.930E+02  3.349E+02
  2.000E-02  4.587E-01 -9.376E-08 -3.311E-08 -2.711E-08  2.930E+02  3.506E+02
  2.000E-02  4.671E-01 -7.118E-08 -2.876E-08 -3.168E-08  2.930E+02  3.700E+02
  2.000E-02  4.755E-01 -4.536E-08 -2.217E-08 -3.359E-08  2.930E+02  3.934E+02
  2.000E-02  4.840E-01 -1.992E-08 -1.307E-08 -2.860E-08  2.930E+02  4.203E+02
  2.000E-02  4.924E-01 -1.786E-09 -3.597E-09 -1.533E-08  2.934E+02  4.502E+02
  2.000E-02  5.008E-01  3.343E-09  1.684E-09  8.875E-10  3.097E+02  4.820E+02
  2.000E-02  5.050E-01  0.000E+00  0.000E+00  8.875E-10  2.930E+02  2.930E+02
  2.800E-02  0.000E+00 -1.796E-07 -3.997E-08  0.000E+00  2.930E+02  2.930E+02
  2.800E-02  4.208E-03 -1.797E-07 -3.997E-08  1.111E-10  2.930E+02  2.934E+02
  2.800E-02  1.262E-02 -1.797E-07 -3.999E-08  8.413E-11  2.930E+02  2.941E+02
  2.800E-02  2.104E-02 -1.798E-07 -4.006E-08  1.174E-10  2.930E+02  2.950E+02
  2.800E-02  2.946E-02 -1.799E-07 -4.013E-08  1.457E-10  2.930E+02  2.962E+02
  2.800E-02  3.787E-02 -1.800E-07 -4.018E-08  1.491E-10  2.930E+02  2.978E+02
  2.800E-02  4.629E-02 -1.801E-07 -4.022E-08  1.363E-10  2.930E+02  2.998E+02
  2.800E-02  5.471E-02 -1.802E-07 -4.025E-08  1.179E-10  2.930E+02  3.022E+02
  2.800E-02  6.313E-02 -1.803E-07 -4.027E-08  9.929E-11  2.930E+02  3.050E+02
  2.800E-02  7.154E-02 -1.804E-07 -4.028E-08  8.221E-11  2.930E+02  3.079E+02
  2.800E-02  7.996E-02 -1.805E-07 -4.029E-08  6.692E-11  2.930E+02  3.108E+02
  2.800E-02  8.838E-02 -1.805E-07 -4.030E-08  5.327E-11  2.930E+02  3.133E+02
  2.800E-02  9.679E-02 -1.805E-07 -4.030E-08  4.100E-11  2.930E+02  3.150E+02
  2.800E-02  1.052E-01 -1.806E-07 -4.031E-08  2.981E-11  2.931E+02  3.155E+02
  2.800E-02  1.136E-01 -1.806E-07 -4.031E-08  1.938E-11  2.930E+02  3.150E+02
  2.800E-02  1.220E-01 -1.806E-07 -4.031E-08  9.443E-12  2.930E+02  3.133E+02
  2.800E-02  1.305E-01 -1.806E-07 -4.031E-08 -2.793E-13  2.930E+02  3.108E+02
  2.800E-02  1.389E-01 -1.806E-07 -4.031E-08 -1.007E-11  2.930E+02  3.079E+02
  2.800E-02  1.473E-01 -1.806E-07 -4.031E-08 -2.022E-11  2.930E+02  3.050E+02
  2.800E-02  1.557E-01 -1.806E-07 -4.031E-08 -3.102E-11  2.930E+02  3.022E+02
  2.800E-02  1.641E-01 -1.805E-07 -4.030E-08 -4.279E-11  2.930E+02  2.998E+02
  2.800E-02  1.725E-01 -1.805E-07 -4.030E-08 -5.587E-11  2.930E+02  2.979E+02
  2.800E-02  1.810E-01 -1.804E-07 -4.029E-08 -7.067E-11  2.930E+02  2.964E+02
  2.800E-02  1.894E-01 -1.804E-07 -4.028E-08 -8.761E-11  2.930E+02  2.953E+02
  2.800E-02  1.978E-01 -1.803E-07 -4.027E-08 -1.072E-10  2.930E+02  2.945E+02
  2.800E-02  2.062E-01 -1.802E-07 -4.026E-08 -1.300E-10  2.930E+02  2.939E+02
  2.800E-02  2.146E-01 -1.801E-07 -4.024E-08 -1.568E-10  2.930E+02  2.936E+02
  2.800E-02  2.230E-01 -1.800E-07 -4.023E-08 -1.883E-10  2.930E+02  2.934E+02
  2.800E-02  2.315E-01 -1.798E-07 -4.020E-08 -2.254E-10  2.930E+02  2.932E+02
  2.800E-02  2.399E-01 -1.796E-07 -4.018E-08 -2.693E-10  2.930E+02  2.931E+02
  2.800E-02  2.483E-01 -1.794E-07 -4.015E-08 -3.213E-10  2.930E+02  2.931E+02
  2.800E-02  2.567E-01 -1.792E-07 -4.011E-08 -3.829E-10  2.930E+02  2.930E+02
  2.800E-02  2.651E-01 -1.788E-07 -4.006E-08 -4.561E-10  2.930E+02  2.930E+02
  2.800E-02  2.735E-01 -1.785E-07 -4.001E-08 -5.429E-10  2.930E+02  2.930E+02
  2.800E-02  2.820E-01 -1.780E-07 -3.995E-08 -6.460E-10  2.930E+02  2.930E+02
  2.800E-02  2.904E-01 -1.775E-07 -3.987E-08 -7.684E-10  2.930E+02  2.930E+02
  2.800E-02  2.988E-01 -1.768E-07 -3.978E-08 -9.139E-10  2.930E+02  2.930E+02
  2.800E-02  3.072E-01 -1.761E-07 -3.968E-08 -1.087E-09  2.930E+02  2.930E+02
  2.800E-02  3.156E-01 -1.752E-07 -3.955E-08 -1.292E-09  2.930E+02  2.930E+02
  2.800E-02  3.240E-01 -1.741E-07 -3.940E-08 -1.536E-09  2.930E+02  2.930E+02
  2.800E-02  3.325E-01 -1.728E-07 -3.922E-08 -1.826E-09  2.930E+02  2.931E+02
  2.800E-02  3.409E-01 -1.713E-07 -3.901E-08 -2.170E-09  2.930E+02  2.931E+02
  2.800E-02  3.493E-01 -1.695E-07 -3.876E-08 -2.580E-09  2.930E+02  2.932E+02
  2.800E-02  3.577E-01 -1.674E-07 -3.846E-08 -3.066E-09  2.930E+02  2.933E+02
  2.800E-02  3.661E-01 -1.648E-07 -3.811E-08 -3.643E-09  2.930E+02  2.935E+02
  2.800E-02  3.745E-01 -1.618E-07 -3.768E-08 -4.329E-09  2.930E+02  2.938E+02
  2.800E-02  3.830E-01 -1.582E-07 -3.718E-08 -5.142E-09  2.930E+02  2.944E+02
  2.800E-02  3.914E-01 -1.540E-07 -3.658E-08 -6.108E-09  2.930E+02  2.953E+02
  2.800E-02  3.998E-01 -1.489E-07 -3.587E-08 -7.254E-09  2.930E+02  2.967E+02
  2.800E-02  4.082E-01 -1.429E-07 -3.501E-08 -8.612E-09  2.930E+02  2.989E+02
  2.800E-02  4.166E-01 -1.357E-07 -3.397E-08 -1.022E-08  2.930E+02  3.021E+02
  2.800E-02  4.250E-01 -1.273E-07 -3.272E-08 -1.212E-08  2.930E+02  3.068E+02
  2.800E-02  4.335E-01 -1.172E-07 -3.118E-08 -1.436E-08  2.930E+02  3.135E+02
  2.800E-02  4.419E-01 -1.053E-07 -2.925E-08 -1.698E-08  2.930E+02  3.226E+02
  2.800E-02  4.503E-01 -9.130E-08 -2.681E-08 -2.007E-08  2.930E+02  3.348E+02
  2.800E-02  4.587E-01 -7.469E-08 -2.357E-08 -2.356E-08  2.930E+02  3.504E+02
  2.800E-02  4.671E-01 -5.532E-08 -1.908E-08 -2.658E-08  2.930E+02  3.699E+02
  2.800E-02  4.755E-01 -3.412E-08 -1.296E-08 -2.685E-08  2.930E+02  3.932E+02
  2.800E-02  4.840E-01 -1.436E-08 -5.968E-09 -2.173E-08  2.930E+02  4.202E+02
  2.800E-02  4.924E-01 -1.032E-09 -5.432E-10 -1.111E-08  2.934E+02  4.501E+02
  2.800E-02  5.008E-01  2.507E-09  9.561E-10  8.678E-10  3.097E+02  4.820E+02
  2.800E-02  5.050E-01  0.000E+00  0.000E+00  8.678E-10  2.930E+02  2.930E+02
  3.600E-02  0.000E+00 -1.516E-07 -3.865E-08  0.000E+00  2.930E+02  2.930E+02
  3.600E-02  4.208E-03 -1.517E-07 -3.865E-08  1.003E-10  2.930E+02  2.934E+02
  3.600E-02  1.262E-02 -1.517E-07 -3.866E-08  6.647E-11  2.930E+02  2.941E+02
  3.600E-02  2.104E-02 -1.518E-07 -3.868E-08  7.770E-11  2.930E+02  2.950E+02
  3.600E-02  2.946E-02 -1.518E-07 -3.872E-08  9.846E-11  2.930E+02  2.962E+02
  3.600E-02  3.787E-02 -1.519E-07 -3.876E-08  1.083E-10  2.930E+02  2.978E+02
  3.600E-02  4.629E-02 -1.520E-07 -3.880E-08  1.056E-10  2.930E+02  2.998E+02
  3.600E-02  5.471E-02 -1.521E-07 -3.882E-08  9.572E-11  2.930E+02  3.022E+02
  3.600E-02  6.313E-02 -1.521E-07 -3.884E-08  8.317E-11  2.930E+02  3.050E+02
  3.600E-02  7.154E-02 -1.522E-07 -3.886E-08  7.027E-11  2.930E+02  3.079E+02
  3.600E-02  7.996E-02 -1.522E-07 -3.887E-08  5.797E-11  2.930E+02  3.108E+02
  3.600E-02  8.838E-02 -1.523E-07 -3.888E-08  4.657E-11  2.930E+02  3.133E+02
  3.600E-02  9.679E-02 -1.523E-07 -3.888E-08  3.607E-11  2.930E+02  3.150E+02
  3.600E-02  1.052E-01 -1.523E-07 -3.889E-08  2.634E-11  2.931E+02  3.156E+02
  3.600E-02  1.136E-01 -1.524E-07 -3.889E-08  1.720E-11  2.930E+02  3.150E+02
  3.600E-02  1.220E-01 -1.524E-07 -3.889E-08  8.436E-12  2.930E+02  3.133E+02
  3.600E-02  1.305E-01 -1.524E-07 -3.889E-08 -1.714E-13  2.930E+02  3.108E+02
  3.600E-02  1.389E-01 -1.524E-07 -3.889E-08 -8.859E-12  2.930E+02  3.079E+02
  3.600E-02  1.473E-01 -1.524E-07 -3.889E-08 -1.787E-11  2.930E+02  3.050E+02
  3.600E-02  1.557E-01 -1.523E-07 -3.889E-08 -2.745E-11  2.930E+02  3.022E+02
  3.600E-02  1.641E-01 -1.523E-07 -3.888E-08 -3.791E-11  2.930E+02  2.998E+02
  3.600E-02  1.725E-01 -1.523E-07 -3.888E-08 -4.954E-11  2.930E+02  2.979E+02
  3.600E-02  1.810E-01 -1.522E-07 -3.887E-08 -6.268E-11  2.930E+02  2.964E+02
  3.600E-02  1.894E-01 -1.522E-07 -3.886E-08 -7.773E-11  2.930E+02  2.953E+02
  3.600E-02  1.978E-01 -1.521E-07 -3.885E-08 -9.513E-11  2.930E+02  2.945E+02
  3.600E-02  2.062E-01 -1.520E-07 -3.883E-08 -1.154E-10  2.930E+02  2.939E+02
  3.600E-02  2.146E-01 -1.519E-07 -3.881E-08 -1.392E-10  2.930E+02  2.936E+02
  3.600E-02  2.230E-01 -1.518E-07 -3.879E-08 -1.671E-10  2.930E+02  2.934E+02
  3.600E-02  2.315E-01 -1.517E-07 -3.876E-08 -2.001E-10  2.930E+02  2.932E+02
  3.600E-02  2.399E-01 -1.515E-07 -3.873E-08 -2.391E-10  2.930E+02  2.931E+02
  3.600E-02  2.483E-01 -1.513E-07 -3.869E-08 -2.852E-10  2.930E+02  2.931E+02
  3.600E-02  2.567E-01 -1.511E-07 -3.865E-08 -3.400E-10  2.930E+02  2.930E+02
  3.600E-02  2.651E-01 -1.508E-07 -3.859E-08 -4.049E-10  2.930E+02  2.930E+02
  3.600E-02  2.735E-01 -1.505E-07 -3.853E-08 -4.820E-10  2.930E+02  2.930E+02
  3.600E-02  2.820E-01 -1.501E-07 -3.845E-08 -5.736E-10  2.930E+02  2.930E+02
  3.600E-02  2.904E-01 -1.496E-07 -3.836E-08 -6.823E-10  2.930E+02  2.930E+02
  3.600E-02  2.988E-01 -1.490E-07 -3.825E-08 -8.115E-10  2.930E+02  2.930E+02
  3.600E-02  3.072E-01 -1.484E-07 -3.813E-08 -9.650E-10  2.930E+02  2.930E+02
  3.600E-02  3.156E-01 -1.476E-07 -3.797E-08 -1.147E-09  2.930E+02  2.930E+02
  3.600E-02  3.240E-01 -1.466E-07 -3.779E-08 -1.364E-09  2.930E+02  2.930E+02
  3.600E-02  3.325E-01 -1.455E-07 -3.758E-08 -1.622E-09  2.930E+02  2.931E+02
  3.600E-02  3.409E-01 -1.441E-07 -3.732E-08 -1.928E-09  2.930E+02  2.931E+02
  3.600E-02  3.493E-01 -1.425E-07 -3.702E-08 -2.291E-09  2.930E+02  2.932E+02
  3.600E-02  3.577E-01 -1.406E-07 -3.665E-08 -2.723E-09  2.930E+02  2.933E+02
  3.600E-02  3.661E-01 -1.384E-07 -3.622E-08 -3.236E-09  2.930E+02  2.935E+02
  3.600E-02  3.745E-01 -1.357E-07 -3.571E-08 -3.844E-09  2.930E+02  2.938E+02
  3.600E-02  3.830E-01 -1.325E-07 -3.511E-08 -4.566E-09  2.930E+02  2.944E+02
  3.600E-02  3.914E-01 -1.287E-07 -3.438E-08 -5.421E-09  2.930E+02  2.953E+02
  3.600E-02  3.998E-01 -1.242E-07 -3.352E-08 -6.432E-09  2.930E+02  2.967E+02
  3.600E-02  4.082E-01 -1.189E-07 -3.249E-08 -7.626E-09  2.930E+02  2.988E+02
  3.600E-02  4.166E-01 -1.126E-07 -3.126E-08 -9.030E-09  2.930E+02  3.021E+02
  3.600E-02  4.250E-01 -1.051E-07 -2.977E-08 -1.067E-08  2.930E+02  3.067E+02
  3.600E-02  4.335E-01 -9.628E-08 -2.796E-08 -1.258E-08  2.930E+02  3.133E+02
  3.600E-02  4.419E-01 -8.590E-08 -2.575E-08 -1.475E-08  2.930E+02  3.224E+02
  3.600E-02  4.503E-01 -7.375E-08 -2.299E-08 -1.721E-08  2.930E+02  3.345E+02
  3.600E-02  4.587E-01 -5.962E-08 -1.946E-08 -1.976E-08  2.930E+02  3.502E+02
  3.600E-02  4.671E-01 -4.358E-08 -1.489E-08 -2.160E-08  2.930E+02  3.696E+02
  3.600E-02  4.755E-01 -2.665E-08 -9.317E-09 -2.113E-08  2.930E+02  3.930E+02
  3.600E-02  4.840E-01 -1.136E-08 -3.749E-09 -1.680E-08  2.930E+02  4.200E+02
  3.600E-02  4.924E-01 -1.069E-09 -4.366E-11 -8.750E-09  2.934E+02  4.500E+02
  3.600E-02  5.008E-01  1.936E-09  6.722E-10  4.950E-10  3.097E+02  4.820E+02
  3.600E-02  5.050E-01  0.000E+00  0.000E+00  4.950E-10  2.930E+02  2.930E+02
  4.400E-02  0.000E+00 -1.236E-07 -3.869E-08  0.000E+00  2.930E+02  2.930E+02
  4.400E-02  4.208E-03 -1.237E-07 -3.869E-08  7.746E-11  2.930E+02  2.934E+02
  4.400E-02  1.262E-02 -1.237E-07 -3.870E-08  5.117E-11  2.930E+02  2.941E+02
  4.400E-02  2.104E-02 -1.237E-07 -3.872E-08  5.538E-11  2.930E+02  2.950E+02
  4.400E-02  2.946E-02 -1.238E-07 -3.875E-08  6.867E-11  2.930E+02  2.962E+02
  4.400E-02  3.787E-02 -1.238E-07 -3.877E-08  7.770E-11  2.930E+02  2.978E+02
  4.400E-02  4.629E-02 -1.239E-07 -3.880E-08  7.905E-11  2.930E+02  2.998E+02
  4.400E-02  5.471E-02 -1.240E-07 -3.883E-08  7.443E-11  2.930E+02  3.022E+02
  4.400E-02  6.313E-02 -1.240E-07 -3.884E-08  6.656E-11  2.930E+02  3.050E+02
  4.400E-02  7.154E-02 -1.241E-07 -3.886E-08  5.739E-11  2.930E+02  3.079E+02
  4.400E-02  7.996E-02 -1.241E-07 -3.887E-08  4.803E-11  2.930E+02  3.108E+02