VARIABLES="XP","YP","P","U","V","TS","TF"
ZONE T="Zone 001"I=    82 J=    12 F=POINT
  0.000E+00  0.000E+00  1.020E+05  0.000E+00  0.000E+00  2.930E+02  2.930E+02
  0.000E+00  3.156E-03  1.020E+05  0.000E+00  0.000E+00  2.930E+02  2.930E+02
  0.000E+00  9.469E-03  1.020E+05  0.000E+00  0.000E+00  2.930E+02  2.930E+02
  0.000E+00  1.578E-02  1.020E+05  0.000E+00  0.000E+00  2.930E+02  2.930E+02
  0.000E+00  2.209E-02  1.020E+05  0.000E+00  0.000E+00  2.930E+02  2.930E+02
  0.000E+00  2.841E-02  1.020E+05  0.000E+00  0.000E+00  2.931E+02  2.931E+02
  0.000E+00  3.472E-02  1.020E+05  0.000E+00  0.000E+00  2.931E+02  2.931E+02
  0.000E+00  4.103E-02  1.019E+05  0.000E+00  0.000E+00  2.932E+02  2.932E+02
  0.000E+00  4.734E-02  1.019E+05  0.000E+00  0.000E+00  2.933E+02  2.933E+02
  0.000E+00  5.366E-02  1.019E+05  0.000E+00  0.000E+00  2.934E+02  2.934E+02
  0.000E+00  5.997E-02  1.019E+05  0.000E+00  0.000E+00  2.937E+02  2.937E+02
  0.000E+00  6.628E-02  1.019E+05  0.000E+00  0.000E+00  2.941E+02  2.940E+02
  0.000E+00  7.259E-02  1.019E+05  0.000E+00  0.000E+00  2.947E+02  2.946E+02
  0.000E+00  7.891E-02  1.019E+05  0.000E+00  0.000E+00  2.955E+02  2.954E+02
  0.000E+00  8.522E-02  1.019E+05  0.000E+00  0.000E+00  2.968E+02  2.966E+02
  0.000E+00  9.153E-02  1.019E+05  0.000E+00  0.000E+00  2.986E+02  2.983E+02
  0.000E+00  9.784E-02  1.019E+05  0.000E+00  0.000E+00  3.010E+02  3.007E+02
  0.000E+00  1.042E-01  1.019E+05  0.000E+00  0.000E+00  3.044E+02  3.039E+02
  0.000E+00  1.105E-01  1.019E+05  0.000E+00  0.000E+00  3.088E+02  3.081E+02
  0.000E+00  1.168E-01  1.019E+05  0.000E+00  0.000E+00  3.145E+02  3.136E+02
  0.000E+00  1.231E-01  1.018E+05  0.000E+00  0.000E+00  3.215E+02  3.204E+02
  0.000E+00  1.294E-01  1.018E+05  0.000E+00  0.000E+00  3.300E+02  3.288E+02
  0.000E+00  1.357E-01  1.018E+05  0.000E+00  0.000E+00  3.400E+02  3.385E+02
  0.000E+00  1.420E-01  1.018E+05  0.000E+00  0.000E+00  3.512E+02  3.495E+02
  0.000E+00  1.483E-01  1.018E+05  0.000E+00  0.000E+00  3.635E+02  3.616E+02
  0.000E+00  1.547E-01  1.018E+05  0.000E+00  0.000E+00  3.763E+02  3.744E+02
  0.000E+00  1.610E-01  1.018E+05  0.000E+00  0.000E+00  3.892E+02  3.873E+02
  0.000E+00  1.673E-01  1.018E+05  0.000E+00  0.000E+00  4.015E+02  3.997E+02
  0.000E+00  1.736E-01  1.018E+05  0.000E+00  0.000E+00  4.128E+02  4.112E+02
  0.000E+00  1.799E-01  1.018E+05  0.000E+00  0.000E+00  4.224E+02  4.210E+02
  0.000E+00  1.862E-01  1.018E+05  0.000E+00  0.000E+00  4.299E+02  4.288E+02
  0.000E+00  1.925E-01  1.017E+05  0.000E+00  0.000E+00  4.348E+02  4.341E+02
  0.000E+00  1.988E-01  1.017E+05  0.000E+00  0.000E+00  4.371E+02  4.367E+02
  0.000E+00  2.052E-01  1.017E+05  0.000E+00  0.000E+00  4.366E+02  4.366E+02
  0.000E+00  2.115E-01  1.017E+05  0.000E+00  0.000E+00  4.336E+02  4.340E+02
  0.000E+00  2.178E-01  1.017E+05  0.000E+00  0.000E+00  4.283E+02  4.290E+02
  0.000E+00  2.241E-01  1.017E+05  0.000E+00  0.000E+00  4.210E+02  4.220E+02
  0.000E+00  2.304E-01  1.017E+05  0.000E+00  0.000E+00  4.122E+02  4.134E+02
  0.000E+00  2.367E-01  1.017E+05  0.000E+00  0.000E+00  4.024E+02  4.037E+02
  0.000E+00  2.430E-01  1.017E+05  0.000E+00  0.000E+00  3.919E+02  3.934E+02
  0.000E+00  2.493E-01  1.017E+05  0.000E+00  0.000E+00  3.812E+02  3.828E+02
  0.000E+00  2.557E-01  1.016E+05  0.000E+00  0.000E+00  3.707E+02  3.723E+02
  0.000E+00  2.620E-01  1.016E+05  0.000E+00  0.000E+00  3.606E+02  3.621E+02
  0.000E+00  2.683E-01  1.016E+05  0.000E+00  0.000E+00  3.511E+02  3.526E+02
  0.000E+00  2.746E-01  1.016E+05  0.000E+00  0.000E+00  3.425E+02  3.438E+02
  0.000E+00  2.809E-01  1.016E+05  0.000E+00  0.000E+00  3.346E+02  3.359E+02
  0.000E+00  2.872E-01  1.016E+05  0.000E+00  0.000E+00  3.277E+02  3.288E+02
  0.000E+00  2.935E-01  1.016E+05  0.000E+00  0.000E+00  3.216E+02  3.226E+02
  0.000E+00  2.998E-01  1.016E+05  0.000E+00  0.000E+00  3.164E+02  3.173E+02
  0.000E+00  3.062E-01  1.016E+05  0.000E+00  0.000E+00  3.120E+02  3.127E+02
  0.000E+00  3.125E-01  1.016E+05  0.000E+00  0.000E+00  3.083E+02  3.089E+02
  0.000E+00  3.188E-01  1.016E+05  0.000E+00  0.000E+00  3.052E+02  3.057E+02
  0.000E+00  3.251E-01  1.015E+05  0.000E+00  0.000E+00  3.027E+02  3.031E+02
  0.000E+00  3.314E-01  1.015E+05  0.000E+00  0.000E+00  3.006E+02  3.009E+02
  0.000E+00  3.377E-01  1.015E+05  0.000E+00  0.000E+00  2.990E+02  2.992E+02
  0.000E+00  3.440E-01  1.015E+05  0.000E+00  0.000E+00  2.976E+02  2.979E+02
  0.000E+00  3.503E-01  1.015E+05  0.000E+00  0.000E+00  2.966E+02  2.968E+02
  0.000E+00  3.567E-01  1.015E+05  0.000E+00  0.000E+00  2.958E+02  2.959E+02
  0.000E+00  3.630E-01  1.015E+05  0.000E+00  0.000E+00  2.952E+02  2.953E+02
  0.000E+00  3.693E-01  1.015E+05  0.000E+00  0.000E+00  2.947E+02  2.948E+02
  0.000E+00  3.756E-01  1.015E+05  0.000E+00  0.000E+00  2.943E+02  2.944E+02
  0.000E+00  3.819E-01  1.015E+05  0.000E+00  0.000E+00  2.940E+02  2.941E+02
  0.000E+00  3.882E-01  1.015E+05  0.000E+00  0.000E+00  2.938E+02  2.938E+02
  0.000E+00  3.945E-01  1.015E+05  0.000E+00  0.000E+00  2.936E+02  2.937E+02
  0.000E+00  4.008E-01  1.015E+05  0.000E+00  0.000E+00  2.935E+02  2.935E+02
  0.000E+00  4.072E-01  1.014E+05  0.000E+00  0.000E+00  2.934E+02  2.934E+02
  0.000E+00  4.135E-01  1.014E+05  0.000E+00  0.000E+00  2.933E+02  2.933E+02
  0.000E+00  4.198E-01  1.014E+05  0.000E+00  0.000E+00  2.933E+02  2.933E+02
  0.000E+00  4.261E-01  1.014E+05  0.000E+00  0.000E+00  2.932E+02  2.932E+02
  0.000E+00  4.324E-01  1.014E+05  0.000E+00  0.000E+00  2.932E+02  2.932E+02
  0.000E+00  4.387E-01  1.014E+05  0.000E+00  0.000E+00  2.932E+02  2.932E+02
  0.000E+00  4.450E-01  1.014E+05  0.000E+00  0.000E+00  2.931E+02  2.931E+02
  0.000E+00  4.513E-01  1.014E+05  0.000E+00  0.000E+00  2.931E+02  2.931E+02
  0.000E+00  4.577E-01  1.014E+05  0.000E+00  0.000E+00  2.931E+02  2.931E+02
  0.000E+00  4.640E-01  1.014E+05  0.000E+00  0.000E+00  2.931E+02  2.931E+02
  0.000E+00  4.703E-01  1.014E+05  0.000E+00  0.000E+00  2.931E+02  2.931E+02
  0.000E+00  4.766E-01  1.014E+05  0.000E+00  0.000E+00  2.931E+02  2.931E+02
  0.000E+00  4.829E-01  1.014E+05  0.000E+00  0.000E+00  2.931E+02  2.931E+02
  0.000E+00  4.892E-01  1.013E+05  0.000E+00  0.000E+00  2.931E+02  2.931E+02
  0.000E+00  4.955E-01  1.013E+05  0.000E+00  0.000E+00  2.931E+02  2.931E+02
  0.000E+00  5.018E-01  1.013E+05  0.000E+00  0.000E+00  2.930E+02  2.930E+02
  0.000E+00  5.050E-01  1.013E+05  0.000E+00  0.000E+00  2.930E+02  2.930E+02
  1.417E-02  0.000E+00  1.020E+05 -2.385E-08  6.500E-02  2.930E+02  2.930E+02
  1.417E-02  3.156E-03  1.020E+05 -2.385E-08  6.501E-02  2.930E+02  2.930E+02
  1.417E-02  9.469E-03  1.020E+05 -5.756E-08  6.500E-02  2.930E+02  2.930E+02
  1.417E-02  1.578E-02  1.020E+05 -6.702E-08  6.499E-02  2.930E+02  2.930E+02
  1.417E-02  2.209E-02  1.020E+05 -2.692E-07  6.499E-02  2.930E+02  2.930E+02
  1.417E-02  2.841E-02  1.020E+05  6.299E-07  6.500E-02  2.931E+02  2.931E+02
  1.417E-02  3.472E-02  1.020E+05  8.998E-06  6.501E-02  2.931E+02  2.931E+02
  1.417E-02  4.103E-02  1.019E+05  6.599E-07  6.501E-02  2.932E+02  2.932E+02
  1.417E-02  4.734E-02  1.019E+05 -2.639E-07  6.500E-02  2.933E+02  2.933E+02
  1.417E-02  5.366E-02  1.019E+05 -2.886E-08  6.502E-02  2.934E+02  2.934E+02
  1.417E-02  5.997E-02  1.019E+05  9.144E-10  6.503E-02  2.937E+02  2.937E+02
  1.417E-02  6.628E-02  1.019E+05  5.202E-08  6.503E-02  2.941E+02  2.940E+02
  1.417E-02  7.259E-02  1.019E+05  9.055E-08  6.505E-02  2.947E+02  2.946E+02
  1.417E-02  7.891E-02  1.019E+05  1.216E-07  6.507E-02  2.955E+02  2.954E+02
  1.417E-02  8.522E-02  1.019E+05  1.487E-07  6.510E-02  2.968E+02  2.966E+02
  1.417E-02  9.153E-02  1.019E+05  1.730E-07  6.514E-02  2.986E+02  2.983E+02
  1.417E-02  9.784E-02  1.019E+05  1.947E-07  6.519E-02  3.010E+02  3.007E+02
  1.417E-02  1.042E-01  1.019E+05  2.124E-07  6.526E-02  3.044E+02  3.039E+02
  1.417E-02  1.105E-01  1.019E+05  2.221E-07  6.533E-02  3.088E+02  3.081E+02
  1.417E-02  1.168E-01  1.019E+05  2.238E-07  6.543E-02  3.145E+02  3.136E+02
  1.417E-02  1.231E-01  1.018E+05  2.148E-07  6.553E-02  3.215E+02  3.204E+02
  1.417E-02  1.294E-01  1.018E+05  1.919E-07  6.561E-02  3.300E+02  3.288E+02
  1.417E-02  1.357E-01  1.018E+05  1.492E-07  6.566E-02  3.400E+02  3.385E+02
  1.417E-02  1.420E-01  1.018E+05  1.013E-07  6.569E-02  3.512E+02  3.495E+02
  1.417E-02  1.483E-01  1.018E+05  2.237E-08  6.573E-02  3.635E+02  3.616E+02
  1.417E-02  1.547E-01  1.018E+05 -3.018E-08  6.573E-02  3.763E+02  3.744E+02
  1.417E-02  1.610E-01  1.018E+05 -5.582E-08  6.568E-02  3.892E+02  3.873E+02
  1.417E-02  1.673E-01  1.018E+05 -1.018E-07  6.560E-02  4.015E+02  3.997E+02
  1.417E-02  1.736E-01  1.018E+05 -1.427E-07  6.552E-02  4.128E+02  4.112E+02
  1.417E-02  1.799E-01  1.018E+05 -2.022E-07  6.542E-02  4.224E+02  4.210E+02
  1.417E-02  1.862E-01  1.018E+05 -2.715E-07  6.529E-02  4.299E+02  4.288E+02
  1.417E-02  1.925E-01  1.017E+05 -2.209E-07  6.515E-02  4.348E+02  4.341E+02
  1.417E-02  1.988E-01  1.017E+05 -1.764E-07  6.502E-02  4.371E+02  4.367E+02
  1.417E-02  2.052E-01  1.017E+05 -1.565E-07  6.489E-02  4.366E+02  4.366E+02
  1.417E-02  2.115E-01  1.017E+05  2.607E-08  6.477E-02  4.336E+02  4.340E+02
  1.417E-02  2.178E-01  1.017E+05 -6.479E-07  6.468E-02  4.283E+02  4.290E+02
  1.417E-02  2.241E-01  1.017E+05 -7.139E-06  6.459E-02  4.210E+02  4.220E+02
  1.417E-02  2.304E-01  1.017E+05 -6.195E-07  6.450E-02  4.122E+02  4.134E+02
  1.417E-02  2.367E-01  1.017E+05  3.360E-07  6.444E-02  4.024E+02  4.037E+02
  1.417E-02  2.430E-01  1.017E+05 -5.376E-07  6.443E-02  3.919E+02  3.934E+02
  1.417E-02  2.493E-01  1.017E+05 -7.529E-06  6.441E-02  3.812E+02  3.828E+02
  1.417E-02  2.557E-01  1.016E+05 -5.759E-07  6.441E-02  3.707E+02  3.723E+02
  1.417E-02  2.620E-01  1.016E+05  2.276E-07  6.442E-02  3.606E+02  3.621E+02
  1.417E-02  2.683E-01  1.016E+05  4.808E-08  6.443E-02  3.511E+02  3.526E+02
  1.417E-02  2.746E-01  1.016E+05  6.737E-08  6.448E-02  3.425E+02  3.438E+02
  1.417E-02  2.809E-01  1.016E+05  3.269E-08  6.453E-02  3.346E+02  3.359E+02
  1.417E-02  2.872E-01  1.016E+05  2.471E-08  6.458E-02  3.277E+02  3.288E+02
  1.417E-02  2.935E-01  1.016E+05  1.757E-08  6.464E-02  3.216E+02  3.226E+02
  1.417E-02  2.998E-01  1.016E+05  1.408E-08  6.468E-02  3.164E+02  3.173E+02
  1.417E-02  3.062E-01  1.016E+05  1.316E-08  6.473E-02  3.120E+02  3.127E+02
  1.417E-02  3.125E-01  1.016E+05  1.699E-08  6.478E-02  3.083E+02  3.089E+02
  1.417E-02  3.188E-01  1.016E+05  2.003E-08  6.482E-02  3.052E+02  3.057E+02
  1.417E-02  3.251E-01  1.015E+05  3.951E-08  6.484E-02  3.027E+02  3.031E+02
  1.417E-02  3.314E-01  1.015E+05  1.867E-08  6.486E-02  3.006E+02  3.009E+02
  1.417E-02  3.377E-01  1.015E+05  1.555E-08  6.490E-02  2.990E+02  2.992E+02
  1.417E-02  3.440E-01  1.015E+05  1.011E-08  6.492E-02  2.976E+02  2.979E+02
  1.417E-02  3.503E-01  1.015E+05  7.020E-09  6.493E-02  2.966E+02  2.968E+02
  1.417E-02  3.567E-01  1.015E+05  3.935E-09  6.495E-02  2.958E+02  2.959E+02
  1.417E-02  3.630E-01  1.015E+05  2.025E-09  6.497E-02  2.952E+02  2.953E+02
  1.417E-02  3.693E-01  1.015E+05  5.771E-10  6.497E-02  2.947E+02  2.948E+02
  1.417E-02  3.756E-01  1.015E+05 -3.611E-10  6.497E-02  2.943E+02  2.944E+02
  1.417E-02  3.819E-01  1.015E+05 -9.370E-10  6.498E-02  2.940E+02  2.941E+02
  1.417E-02  3.882E-01  1.015E+05 -1.203E-09  6.500E-02  2.938E+02  2.938E+02
  1.417E-02  3.945E-01  1.015E+05 -1.236E-09  6.499E-02  2.936E+02  2.937E+02
  1.417E-02  4.008E-01  1.015E+05 -1.107E-09  6.499E-02  2.935E+02  2.935E+02
  1.417E-02  4.072E-01  1.014E+05 -8.378E-10  6.499E-02  2.934E+02  2.934E+02
  1.417E-02  4.135E-01  1.014E+05 -4.705E-10  6.499E-02  2.933E+02  2.933E+02
  1.417E-02  4.198E-01  1.014E+05 -5.912E-11  6.499E-02  2.933E+02  2.933E+02
  1.417E-02  4.261E-01  1.014E+05  3.738E-10  6.500E-02  2.932E+02  2.932E+02
  1.417E-02  4.324E-01  1.014E+05  7.817E-10  6.500E-02  2.932E+02  2.932E+02
  1.417E-02  4.387E-01  1.014E+05  1.146E-09  6.500E-02  2.932E+02  2.932E+02
  1.417E-02  4.450E-01  1.014E+05  1.473E-09  6.499E-02  2.931E+02  2.931E+02
  1.417E-02  4.513E-01  1.014E+05  1.747E-09  6.500E-02  2.931E+02  2.931E+02
  1.417E-02  4.577E-01  1.014E+05  1.943E-09  6.500E-02  2.931E+02  2.931E+02
  1.417E-02  4.640E-01  1.014E+05  2.052E-09  6.501E-02  2.931E+02  2.931E+02
  1.417E-02  4.703E-01  1.014E+05  2.094E-09  6.501E-02  2.931E+02  2.931E+02
  1.417E-02  4.766E-01  1.014E+05  2.043E-09  6.499E-02  2.931E+02  2.931E+02
  1.417E-02  4.829E-01  1.014E+05  1.901E-09  6.499E-02  2.931E+02  2.931E+02
  1.417E-02  4.892E-01  1.013E+05  1.666E-09  6.500E-02  2.931E+02  2.931E+02
  1.417E-02  4.955E-01  1.013E+05  1.283E-09  6.500E-02  2.931E+02  2.931E+02
  1.417E-02  5.018E-01  1.013E+05  1.014E-09  6.500E-02  2.930E+02  2.930E+02
  1.417E-02  5.050E-01  1.013E+05  1.014E-09  6.500E-02  2.930E+02  2.930E+02
  4.252E-02  0.000E+00  1.020E+05  1.846E-07  6.500E-02  2.930E+02  2.930E+02
  4.252E-02  3.156E-03  1.020E+05  1.846E-07  6.501E-02  2.930E+02  2.930E+02
  4.252E-02  9.469E-03  1.020E+05  1.683E-07  6.500E-02  2.930E+02  2.930E+02
  4.252E-02  1.578E-02  1.020E+05  2.085E-07  6.499E-02  2.930E+02  2.930E+02
  4.252E-02  2.209E-02  1.020E+05  5.971E-08  6.499E-02  2.930E+02  2.930E+02
  4.252E-02  2.841E-02  1.020E+05  1.016E-06  6.501E-02  2.931E+02  2.931E+02
  4.252E-02  3.472E-02  1.020E+05  2.211E-06  6.501E-02  2.931E+02  2.931E+02
  4.252E-02  4.103E-02  1.019E+05  9.340E-07  6.500E-02  2.932E+02  2.932E+02
  4.252E-02  4.734E-02  1.019E+05 -4.396E-08  6.500E-02  2.933E+02  2.933E+02
  4.252E-02  5.366E-02  1.019E+05  1.454E-07  6.502E-02  2.934E+02  2.934E+02
  4.252E-02  5.997E-02  1.019E+05  1.426E-07  6.503E-02  2.937E+02  2.937E+02
  4.252E-02  6.628E-02  1.019E+05  1.739E-07  6.503E-02  2.941E+02  2.940E+02
  4.252E-02  7.259E-02  1.019E+05  2.006E-07  6.505E-02  2.947E+02  2.946E+02
  4.252E-02  7.891E-02  1.019E+05  2.266E-07  6.507E-02  2.955E+02  2.954E+02
  4.252E-02  8.522E-02  1.019E+05  2.528E-07  6.510E-02  2.968E+02  2.966E+02
  4.252E-02  9.153E-02  1.019E+05  2.790E-07  6.514E-02  2.986E+02  2.983E+02
  4.252E-02  9.784E-02  1.019E+05  3.052E-07  6.520E-02  3.010E+02  3.006E+02
  4.252E-02  1.042E-01  1.019E+05  3.298E-07  6.526E-02  3.044E+02  3.039E+02
  4.252E-02  1.105E-01  1.019E+05  3.491E-07  6.534E-02  3.088E+02  3.081E+02
  4.252E-02  1.168E-01  1.019E+05  3.642E-07  6.543E-02  3.144E+02  3.136E+02
  4.252E-02  1.231E-01  1.018E+05  3.740E-07  6.553E-02  3.215E+02  3.204E+02
  4.252E-02  1.294E-01  1.018E+05  3.792E-07  6.562E-02  3.300E+02  3.287E+02
  4.252E-02  1.357E-01  1.018E+05  3.753E-07  6.566E-02  3.400E+02  3.385E+02
  4.252E-02  1.420E-01  1.018E+05  3.978E-07  6.569E-02  3.512E+02  3.495E+02
  4.252E-02  1.483E-01  1.018E+05  4.012E-07  6.573E-02  3.634E+02  3.616E+02
  4.252E-02  1.547E-01  1.018E+05  3.382E-07  6.573E-02  3.762E+02  3.744E+02
  4.252E-02  1.610E-01  1.018E+05  2.166E-07  6.569E-02  3.891E+02  3.872E+02
  4.252E-02  1.673E-01  1.018E+05  9.359E-08  6.561E-02  4.015E+02  3.997E+02
  4.252E-02  1.736E-01  1.018E+05  8.924E-09  6.552E-02  4.128E+02  4.112E+02
  4.252E-02  1.799E-01  1.018E+05 -8.406E-08  6.542E-02  4.224E+02  4.210E+02
  4.252E-02  1.862E-01  1.018E+05 -1.694E-07  6.529E-02  4.298E+02  4.287E+02
  4.252E-02  1.925E-01  1.017E+05 -1.735E-07  6.516E-02  4.348E+02  4.341E+02
  4.252E-02  1.988E-01  1.017E+05 -1.728E-07  6.502E-02  4.371E+02  4.367E+02
  4.252E-02  2.052E-01  1.017E+05 -1.995E-07  6.489E-02  4.366E+02  4.366E+02
  4.252E-02  2.115E-01  1.017E+05 -6.658E-08  6.477E-02  4.336E+02  4.340E+02
  4.252E-02  2.178E-01  1.017E+05 -8.041E-07  6.467E-02  4.283E+02  4.289E+02
  4.252E-02  2.241E-01  1.017E+05 -1.786E-06  6.459E-02  4.210E+02  4.220E+02
  4.252E-02  2.304E-01  1.017E+05 -8.262E-07  6.451E-02  4.122E+02  4.134E+02
  4.252E-02  2.367E-01  1.017E+05  1.013E-07  6.444E-02  4.024E+02  4.037E+02
  4.252E-02  2.430E-01  1.017E+05 -8.198E-07  6.442E-02  3.919E+02  3.934E+02
  4.252E-02  2.493E-01  1.017E+05 -1.867E-06  6.441E-02  3.812E+02  3.828E+02
  4.252E-02  2.557E-01  1.016E+05 -8.273E-07  6.441E-02  3.707E+02  3.723E+02
  4.252E-02  2.620E-01  1.016E+05  1.537E-08  6.442E-02  3.606E+02  3.622E+02
  4.252E-02  2.683E-01  1.016E+05 -1.326E-07  6.443E-02  3.512E+02  3.526E+02
  4.252E-02  2.746E-01  1.016E+05 -7.361E-08  6.448E-02  3.425E+02  3.438E+02
  4.252E-02  2.809E-01  1.016E+05 -1.127E-07  6.453E-02  3.346E+02  3.359E+02
  4.252E-02  2.872E-01  1.016E+05 -1.086E-07  6.458E-02  3.277E+02  3.288E+02
  4.252E-02  2.935E-01  1.016E+05 -1.142E-07  6.464E-02  3.216E+02  3.226E+02
  4.252E-02  2.998E-01  1.016E+05 -1.425E-07  6.468E-02  3.164E+02  3.173E+02
  4.252E-02  3.062E-01  1.016E+05 -1.737E-07  6.473E-02  3.120E+02  3.127E+02
  4.252E-02  3.125E-01  1.016E+05 -1.573E-07  6.478E-02  3.083E+02  3.089E+02
  4.252E-02  3.188E-01  1.016E+05 -1.482E-07  6.482E-02  3.052E+02  3.057E+02
  4.252E-02  3.251E-01  1.015E+05 -1.452E-07  6.484E-02  3.027E+02  3.031E+02
  4.252E-02  3.314E-01  1.015E+05 -1.380E-07  6.486E-02  3.006E+02  3.010E+02
  4.252E-02  3.377E-01  1.015E+05 -1.005E-07  6.490E-02  2.990E+02  2.992E+02
  4.252E-02  3.440E-01  1.015E+05 -8.390E-08  6.492E-02  2.976E+02  2.979E+02
  4.252E-02  3.503E-01  1.015E+05 -4.971E-08  6.493E-02  2.966E+02  2.968E+02
  4.252E-02  3.567E-01  1.015E+05 -5.848E-08  6.495E-02  2.958E+02  2.959E+02
  4.252E-02  3.630E-01  1.015E+05 -5.017E-08  6.497E-02  2.952E+02  2.953E+02
  4.252E-02  3.693E-01  1.015E+05 -4.539E-08  6.497E-02  2.947E+02  2.948E+02
  4.252E-02  3.756E-01  1.015E+05 -3.973E-08  6.497E-02  2.943E+02  2.944E+02
  4.252E-02  3.819E-01  1.015E+05 -3.450E-08  6.498E-02  2.940E+02  2.941E+02
  4.252E-02  3.882E-01  1.015E+05 -2.961E-08  6.500E-02  2.938E+02  2.938E+02
  4.252E-02  3.945E-01  1.015E+05 -2.511E-08  6.499E-02  2.936E+02  2.937E+02
  4.252E-02  4.008E-01  1.015E+05 -2.103E-08  6.499E-02  2.935E+02  2.935E+02
  4.252E-02  4.072E-01  1.014E+05 -1.734E-08  6.499E-02  2.934E+02  2.934E+02
  4.252E-02  4.135E-01  1.014E+05 -1.400E-08  6.499E-02  2.933E+02  2.933E+02
  4.252E-02  4.198E-01  1.014E+05 -1.101E-08  6.499E-02  2.933E+02  2.933E+02
  4.252E-02  4.261E-01  1.014E+05 -8.356E-09  6.500E-02  2.932E+02  2.932E+02
  4.252E-02  4.324E-01  1.014E+05 -6.041E-09  6.500E-02  2.932E+02  2.932E+02
  4.252E-02  4.387E-01  1.014E+05 -4.047E-09  6.500E-02  2.932E+02  2.932E+02
  4.252E-02  4.450E-01  1.014E+05 -2.337E-09  6.499E-02  2.931E+02  2.931E+02
  4.252E-02  4.513E-01  1.014E+05 -9.227E-10  6.500E-02  2.931E+02  2.931E+02
  4.252E-02  4.577E-01  1.014E+05  2.078E-10  6.500E-02  2.931E+02  2.931E+02
  4.252E-02  4.640E-01  1.014E+05  1.090E-09  6.501E-02  2.931E+02  2.931E+02
  4.252E-02  4.703E-01  1.014E+05  1.729E-09  6.501E-02  2.931E+02  2.931E+02
  4.252E-02  4.766E-01  1.014E+05  2.117E-09  6.499E-02  2.931E+02  2.931E+02
  4.252E-02  4.829E-01  1.014E+05  2.269E-09  6.499E-02  2.931E+02  2.931E+02
  4.252E-02  4.892E-01  1.013E+05  2.194E-09  6.500E-02  2.931E+02  2.931E+02
  4.252E-02  4.955E-01  1.013E+05  1.806E-09  6.500E-02  2.931E+02  2.931E+02
  4.252E-02  5.018E-01  1.013E+05  1.453E-09  6.500E-02  2.930E+02  2.930E+02
  4.252E-02  5.050E-01  1.013E+05  1.453E-09  6.500E-02  2.930E+02  2.930E+02
  7.087E-02  0.000E+00  1.020E+05  1.226E-07  6.500E-02  2.930E+02  2.930E+02
  7.087E-02  3.156E-03  1.020E+05  1.226E-07  6.501E-02  2.930E+02  2.930E+02
  7.087E-02  9.469E-03  1.020E+05 -4.372E-08  6.500E-02  2.930E+02  2.930E+02
  7.087E-02  1.578E-02  1.020E+05  9.354E-07  6.499E-02  2.930E+02  2.930E+02
  7.087E-02  2.209E-02  1.020E+05  2.242E-06  6.499E-02  2.930E+02  2.930E+02
  7.087E-02  2.841E-02  1.020E+05  1.085E-06  6.501E-02  2.931E+02  2.931E+02
  7.087E-02  3.472E-02  1.020E+05  1.446E-07  6.501E-02  2.931E+02  2.931E+02
  7.087E-02  4.103E-02  1.019E+05  2.780E-07  6.500E-02  2.932E+02  2.932E+02
  7.087E-02  4.734E-02  1.019E+05  1.928E-07  6.500E-02  2.933E+02  2.933E+02
  7.087E-02  5.366E-02  1.019E+05  1.736E-07  6.502E-02  2.934E+02  2.934E+02
  7.087E-02  5.997E-02  1.019E+05  1.536E-07  6.503E-02  2.937E+02  2.937E+02
  7.087E-02  6.628E-02  1.019E+05  1.401E-07  6.503E-02  2.941E+02  2.940E+02
  7.087E-02  7.259E-02  1.019E+05  1.301E-07  6.505E-02  2.947E+02  2.946E+02
  7.087E-02  7.891E-02  1.019E+05  1.264E-07  6.507E-02  2.955E+02  2.954E+02
  7.087E-02  8.522E-02  1.019E+05  1.248E-07  6.510E-02  2.968E+02  2.966E+02
  7.087E-02  9.153E-02  1.019E+05  1.221E-07  6.514E-02  2.986E+02  2.983E+02
  7.087E-02  9.784E-02  1.019E+05  1.185E-07  6.520E-02  3.010E+02  3.006E+02
  7.087E-02  1.042E-01  1.019E+05  1.142E-07  6.526E-02  3.044E+02  3.039E+02
  7.087E-02  1.105E-01  1.019E+05  1.085E-07  6.534E-02  3.088E+02  3.081E+02
  7.087E-02  1.168E-01  1.019E+05  1.024E-07  6.543E-02  3.144E+02  3.136E+02
  7.087E-02  1.231E-01  1.018E+05  9.043E-08  6.553E-02  3.215E+02  3.204E+02
  7.087E-02  1.294E-01  1.018E+05  9.840E-08  6.562E-02  3.300E+02  3.287E+02
  7.087E-02  1.357E-01  1.018E+05 -4.383E-08  6.567E-02  3.400E+02  3.385E+02
  7.087E-02  1.420E-01  1.018E+05  6.837E-07  6.569E-02  3.512E+02  3.495E+02
  7.087E-02  1.483E-01  1.018E+05  2.620E-06  6.573E-02  3.634E+02  3.616E+02
  7.087E-02  1.547E-01  1.018E+05  2.556E-06  6.573E-02  3.762E+02  3.744E+02
  7.087E-02  1.610E-01  1.018E+05  6.610E-07  6.569E-02  3.891E+02  3.872E+02
  7.087E-02  1.673E-01  1.018E+05  1.467E-08  6.561E-02  4.015E+02  3.997E+02
  7.087E-02  1.736E-01  1.018E+05  1.498E-07  6.552E-02  4.128E+02  4.112E+02
  7.087E-02  1.799E-01  1.018E+05  1.664E-07  6.542E-02  4.224E+02  4.210E+02
  7.087E-02  1.862E-01  1.018E+05  1.954E-07  6.529E-02  4.298E+02  4.287E+02
  7.087E-02  1.925E-01  1.017E+05  1.384E-07  6.516E-02  4.348E+02  4.340E+02
  7.087E-02  1.988E-01  1.017E+05  8.250E-08  6.502E-02  4.371E+02  4.367E+02
  7.087E-02  2.052E-01  1.017E+05  2.843E-08  6.490E-02  4.366E+02  4.366E+02
  7.087E-02  2.115E-01  1.017E+05 -3.285E-08  6.477E-02  4.336E+02  4.339E+02
  7.087E-02  2.178E-01  1.017E+05 -1.286E-07  6.467E-02  4.283E+02  4.289E+02
  7.087E-02  2.241E-01  1.017E+05 -2.183E-07  6.459E-02  4.210E+02  4.219E+02
  7.087E-02  2.304E-01  1.017E+05 -2.321E-07  6.451E-02  4.122E+02  4.134E+02
  7.087E-02  2.367E-01  1.017E+05 -2.368E-07  6.444E-02  4.023E+02  4.037E+02
  7.087E-02  2.430E-01  1.017E+05 -3.007E-07  6.442E-02  3.919E+02  3.934E+02
  7.087E-02  2.493E-01  1.017E+05 -3.428E-07  6.441E-02  3.812E+02  3.828E+02
  7.087E-02  2.557E-01  1.016E+05 -3.390E-07  6.442E-02  3.707E+02  3.723E+02
  7.087E-02  2.620E-01  1.016E+05 -3.058E-07  6.442E-02  3.606E+02  3.621E+02
  7.087E-02  2.683E-01  1.016E+05 -3.194E-07  6.443E-02  3.512E+02  3.526E+02
  7.087E-02  2.746E-01  1.016E+05 -3.124E-07  6.448E-02  3.425E+02  3.438E+02
  7.087E-02  2.809E-01  1.016E+05 -3.016E-07  6.453E-02  3.346E+02  3.359E+02
  7.087E-02  2.872E-01  1.016E+05 -2.621E-07  6.458E-02  3.277E+02  3.288E+02
  7.087E-02  2.935E-01  1.016E+05 -2.386E-07  6.464E-02  3.216E+02  3.226E+02
  7.087E-02  2.998E-01  1.016E+05 -2.301E-07  6.468E-02  3.164E+02  3.173E+02
  7.087E-02  3.062E-01  1.016E+05 -2.513E-07  6.473E-02  3.120E+02  3.127E+02
  7.087E-02  3.125E-01  1.016E+05 -3.396E-08  6.478E-02  3.083E+02  3.089E+02
  7.087E-02  3.188E-01  1.016E+05 -9.614E-07  6.482E-02  3.052E+02  3.057E+02
  7.087E-02  3.251E-01  1.015E+05 -2.213E-06  6.484E-02  3.027E+02  3.031E+02
  7.087E-02  3.314E-01  1.015E+05 -9.841E-07  6.486E-02  3.006E+02  3.010E+02
  7.087E-02  3.377E-01  1.015E+05 -7.578E-09  6.490E-02  2.990E+02  2.992E+02
  7.087E-02  3.440E-01  1.015E+05 -2.394E-07  6.492E-02  2.976E+02  2.979E+02
  7.087E-02  3.503E-01  1.015E+05 -2.461E-07  6.494E-02  2.966E+02  2.968E+02
  7.087E-02  3.567E-01  1.015E+05 -2.246E-07  6.495E-02  2.958E+02  2.959E+02
  7.087E-02  3.630E-01  1.015E+05 -1.637E-07  6.497E-02  2.952E+02  2.953E+02
  7.087E-02  3.693E-01  1.015E+05 -1.347E-07  6.497E-02  2.947E+02  2.948E+02
  7.087E-02  3.756E-01  1.015E+05 -1.086E-07  6.497E-02  2.943E+02  2.944E+02
  7.087E-02  3.819E-01  1.015E+05 -8.941E-08  6.498E-02  2.940E+02  2.941E+02
  7.087E-02  3.882E-01  1.015E+05 -7.407E-08  6.500E-02  2.938E+02  2.938E+02
  7.087E-02  3.945E-01  1.015E+05 -6.181E-08  6.499E-02  2.936E+02  2.937E+02
  7.087E-02  4.008E-01  1.015E+05 -5.179E-08  6.499E-02  2.935E+02  2.935E+02
  7.087E-02  4.072E-01  1.014E+05 -4.349E-08  6.499E-02  2.934E+02  2.934E+02
  7.087E-02  4.135E-01  1.014E+05 -3.655E-08  6.499E-02  2.933E+02  2.933E+02
  7.087E-02  4.198E-01  1.014E+05 -3.068E-08  6.499E-02  2.933E+02  2.933E+02
  7.087E-02  4.261E-01  1.014E+05 -2.566E-08  6.500E-02  2.932E+02  2.932E+02
  7.087E-02  4.324E-01  1.014E+05 -2.136E-08  6.500E-02  2.932E+02  2.932E+02
  7.087E-02  4.387E-01  1.014E+05 -1.766E-08  6.500E-02  2.932E+02  2.932E+02
  7.087E-02  4.450E-01  1.014E+05 -1.446E-08  6.499E-02  2.931E+02  2.931E+02
  7.087E-02  4.513E-01  1.014E+05 -1.171E-08  6.500E-02  2.931E+02  2.931E+02
  7.087E-02  4.577E-01  1.014E+05 -9.339E-09  6.500E-02  2.931E+02  2.931E+02
  7.087E-02  4.640E-01  1.014E+05 -7.290E-09  6.501E-02  2.931E+02  2.931E+02
  7.087E-02  4.703E-01  1.014E+05 -5.552E-09  6.501E-02  2.931E+02  2.931E+02
  7.087E-02  4.766E-01  1.014E+05 -4.094E-09  6.499E-02  2.931E+02  2.931E+02
  7.087E-02  4.829E-01  1.014E+05 -2.888E-09  6.499E-02  2.931E+02  2.931E+02
  7.087E-02  4.892E-01  1.013E+05 -1.905E-09  6.500E-02  2.931E+02  2.931E+02
  7.087E-02  4.955E-01  1.013E+05 -1.091E-09  6.500E-02  2.931E+02  2.931E+02
  7.087E-02  5.018E-01  1.013E+05 -7.203E-10  6.500E-02  2.930E+02  2.930E+02
  7.087E-02  5.050E-01  1.013E+05 -7.203E-10  6.500E-02  2.930E+02  2.930E+02
  9.922E-02  0.000E+00  1.020E+05  5.157E-08  6.500E-02  2.930E+02  2.930E+02
  9.922E-02  3.156E-03  1.020E+05  5.157E-08  6.501E-02  2.930E+02  2.930E+02
  9.922E-02  9.469E-03  1.020E+05 -1.212E-07  6.500E-02  2.930E+02  2.930E+02
  9.922E-02  1.578E-02  1.020E+05  8.544E-07  6.500E-02  2.930E+02  2.930E+02
  9.922E-02  2.209E-02  1.020E+05  2.130E-06  6.499E-02  2.930E+02  2.930E+02
  9.922E-02  2.841E-02  1.020E+05  8.693E-07  6.500E-02  2.931E+02  2.931E+02
  9.922E-02  3.472E-02  1.020E+05 -1.231E-07  6.501E-02  2.931E+02  2.931E+02
  9.922E-02  4.103E-02  1.019E+05  8.107E-08  6.500E-02  2.932E+02  2.932E+02
  9.922E-02  4.734E-02  1.019E+05  6.449E-08  6.500E-02  2.933E+02  2.933E+02
  9.922E-02  5.366E-02  1.019E+05  7.545E-08  6.502E-02  2.934E+02  2.934E+02
  9.922E-02  5.997E-02  1.019E+05  7.465E-08  6.503E-02  2.937E+02  2.937E+02
  9.922E-02  6.628E-02  1.019E+05  7.070E-08  6.503E-02  2.941E+02  2.940E+02
  9.922E-02  7.259E-02  1.019E+05  6.430E-08  6.505E-02  2.947E+02  2.946E+02
  9.922E-02  7.891E-02  1.019E+05  5.910E-08  6.507E-02  2.955E+02  2.954E+02
  9.922E-02  8.522E-02  1.019E+05  5.326E-08  6.510E-02  2.968E+02  2.966E+02
  9.922E-02  9.153E-02  1.019E+05  4.511E-08  6.514E-02  2.986E+02  2.983E+02
  9.922E-02  9.784E-02  1.019E+05  3.446E-08  6.520E-02  3.010E+02  3.006E+02
  9.922E-02  1.042E-01  1.019E+05  2.209E-08  6.526E-02  3.044E+02  3.039E+02
  9.922E-02  1.105E-01  1.019E+05  8.971E-09  6.534E-02  3.088E+02  3.081E+02
  9.922E-02  1.168E-01  1.019E+05 -2.303E-09  6.543E-02  3.144E+02  3.136E+02
  9.922E-02  1.231E-01  1.018E+05 -1.681E-08  6.553E-02  3.215E+02  3.204E+02
  9.922E-02  1.294E-01  1.018E+05 -7.862E-09  6.562E-02  3.300E+02  3.287E+02
  9.922E-02  1.357E-01  1.018E+05 -1.451E-07  6.567E-02  3.400E+02  3.385E+02
  9.922E-02  1.420E-01  1.018E+05  5.884E-07  6.570E-02  3.512E+02  3.495E+02
  9.922E-02  1.483E-01  1.018E+05  2.516E-06  6.574E-02  3.634E+02  3.616E+02
  9.922E-02  1.547E-01  1.018E+05  2.470E-06  6.573E-02  3.762E+02  3.744E+02
  9.922E-02  1.610E-01  1.018E+05  6.136E-07  6.567E-02  3.891E+02  3.873E+02
  9.922E-02  1.673E-01  1.018E+05 -8.681E-09  6.560E-02  4.015E+02  3.997E+02
  9.922E-02  1.736E-01  1.018E+05  1.445E-07  6.552E-02  4.128E+02  4.112E+02
  9.922E-02  1.799E-01  1.018E+05  1.750E-07  6.542E-02  4.224E+02  4.210E+02
  9.922E-02  1.862E-01  1.018E+05  2.072E-07  6.529E-02  4.299E+02  4.288E+02
  9.922E-02  1.925E-01  1.017E+05  1.950E-07  6.516E-02  4.348E+02  4.341E+02
  9.922E-02  1.988E-01  1.017E+05  1.728E-07  6.502E-02  4.371E+02  4.367E+02
  9.922E-02  2.052E-01  1.017E+05  1.549E-07  6.489E-02  4.366E+02  4.366E+02
  9.922E-02  2.115E-01  1.017E+05  1.336E-07  6.477E-02  4.336E+02  4.339E+02
  9.922E-02  2.178E-01  1.017E+05  8.972E-08  6.467E-02  4.283E+02  4.289E+02
  9.922E-02  2.241E-01  1.017E+05  7.534E-08  6.459E-02  4.210E+02  4.219E+02
  9.922E-02  2.304E-01  1.017E+05  3.368E-08  6.451E-02  4.122E+02  4.134E+02
  9.922E-02  2.367E-01  1.017E+05  3.001E-08  6.444E-02  4.023E+02  4.037E+02
  9.922E-02  2.430E-01  1.017E+05  8.440E-09  6.442E-02  3.919E+02  3.934E+02
  9.922E-02  2.493E-01  1.017E+05  2.979E-08  6.441E-02  3.812E+02  3.828E+02
  9.922E-02  2.557E-01  1.016E+05 -4.360E-08  6.442E-02  3.707E+02  3.723E+02
  9.922E-02  2.620E-01  1.016E+05  7.528E-08  6.442E-02  3.606E+02  3.621E+02
  9.922E-02  2.683E-01  1.016E+05 -8.295E-07  6.443E-02  3.511E+02  3.526E+02
  9.922E-02  2.746E-01  1.016E+05 -1.991E-06  6.448E-02  3.425E+02  3.438E+02
  9.922E-02  2.809E-01  1.016E+05 -8.509E-07  6.453E-02  3.346E+02  3.359E+02
  9.922E-02  2.872E-01  1.016E+05  3.534E-08  6.458E-02  3.277E+02  3.288E+02
  9.922E-02  2.935E-01  1.016E+05 -1.377E-07  6.464E-02  3.216E+02  3.226E+02
  9.922E-02  2.998E-01  1.016E+05 -1.083E-07  6.469E-02  3.164E+02  3.173E+02
  9.922E-02  3.062E-01  1.016E+05 -1.269E-07  6.473E-02  3.120E+02  3.127E+02
  9.922E-02  3.125E-01  1.016E+05  6.069E-08  6.478E-02  3.083E+02  3.089E+02
  9.922E-02  3.188E-01  1.016E+05 -8.991E-07  6.481E-02  3.052E+02  3.057E+02
  9.922E-02  3.251E-01  1.015E+05 -2.137E-06  6.484E-02  3.027E+02  3.031E+02
  9.922E-02  3.314E-01  1.015E+05 -9.136E-07  6.487E-02  3.006E+02  3.010E+02
  9.922E-02  3.377E-01  1.015E+05  2.570E-07  6.490E-02  2.990E+02  2.992E+02