VARIABLES="XP","YP","P","U","V","TS","TF"
ZONE T="Zone 001"I=    82 J=    22 F=POINT
  0.000E+00  0.000E+00  1.019E+05  0.000E+00  0.000E+00  7.953E-01  7.953E-01
  0.000E+00  3.156E-03  1.019E+05  0.000E+00  0.000E+00  7.953E-01  7.953E-01
  0.000E+00  9.469E-03  1.019E+05  0.000E+00  0.000E+00  7.953E-01  7.953E-01
  0.000E+00  1.578E-02  1.019E+05  0.000E+00  0.000E+00  7.954E-01  7.954E-01
  0.000E+00  2.209E-02  1.019E+05  0.000E+00  0.000E+00  7.955E-01  7.955E-01
  0.000E+00  2.841E-02  1.019E+05  0.000E+00  0.000E+00  7.957E-01  7.957E-01
  0.000E+00  3.472E-02  1.019E+05  0.000E+00  0.000E+00  7.961E-01  7.961E-01
  0.000E+00  4.103E-02  1.019E+05  0.000E+00  0.000E+00  7.969E-01  7.969E-01
  0.000E+00  4.734E-02  1.019E+05  0.000E+00  0.000E+00  7.982E-01  7.982E-01
  0.000E+00  5.366E-02  1.019E+05  0.000E+00  0.000E+00  8.006E-01  8.005E-01
  0.000E+00  5.997E-02  1.018E+05  0.000E+00  0.000E+00  8.045E-01  8.043E-01
  0.000E+00  6.628E-02  1.018E+05  0.000E+00  0.000E+00  8.109E-01  8.106E-01
  0.000E+00  7.259E-02  1.018E+05  0.000E+00  0.000E+00  8.213E-01  8.208E-01
  0.000E+00  7.891E-02  1.018E+05  0.000E+00  0.000E+00  8.377E-01  8.370E-01
  0.000E+00  8.522E-02  1.018E+05  0.000E+00  0.000E+00  8.633E-01  8.621E-01
  0.000E+00  9.153E-02  1.018E+05  0.000E+00  0.000E+00  9.020E-01  9.003E-01
  0.000E+00  9.784E-02  1.018E+05  0.000E+00  0.000E+00  9.590E-01  9.564E-01
  0.000E+00  1.042E-01  1.018E+05  0.000E+00  0.000E+00  1.040E+00  1.037E+00
  0.000E+00  1.105E-01  1.018E+05  0.000E+00  0.000E+00  1.152E+00  1.147E+00
  0.000E+00  1.168E-01  1.018E+05  0.000E+00  0.000E+00  1.300E+00  1.294E+00
  0.000E+00  1.231E-01  1.018E+05  0.000E+00  0.000E+00  1.489E+00  1.481E+00
  0.000E+00  1.294E-01  1.018E+05  0.000E+00  0.000E+00  1.719E+00  1.709E+00
  0.000E+00  1.357E-01  1.018E+05  0.000E+00  0.000E+00  1.988E+00  1.976E+00
  0.000E+00  1.420E-01  1.017E+05  0.000E+00  0.000E+00  2.288E+00  2.274E+00
  0.000E+00  1.483E-01  1.017E+05  0.000E+00  0.000E+00  2.608E+00  2.593E+00
  0.000E+00  1.547E-01  1.017E+05  0.000E+00  0.000E+00  2.931E+00  2.916E+00
  0.000E+00  1.610E-01  1.017E+05  0.000E+00  0.000E+00  3.242E+00  3.227E+00
  0.000E+00  1.673E-01  1.017E+05  0.000E+00  0.000E+00  3.521E+00  3.508E+00
  0.000E+00  1.736E-01  1.017E+05  0.000E+00  0.000E+00  3.753E+00  3.742E+00
  0.000E+00  1.799E-01  1.017E+05  0.000E+00  0.000E+00  3.925E+00  3.917E+00
  0.000E+00  1.862E-01  1.017E+05  0.000E+00  0.000E+00  4.028E+00  4.023E+00
  0.000E+00  1.925E-01  1.017E+05  0.000E+00  0.000E+00  4.058E+00  4.057E+00
  0.000E+00  1.988E-01  1.017E+05  0.000E+00  0.000E+00  4.016E+00  4.018E+00
  0.000E+00  2.052E-01  1.017E+05  0.000E+00  0.000E+00  3.907E+00  3.911E+00
  0.000E+00  2.115E-01  1.017E+05  0.000E+00  0.000E+00  3.739E+00  3.747E+00
  0.000E+00  2.178E-01  1.017E+05  0.000E+00  0.000E+00  3.524E+00  3.534E+00
  0.000E+00  2.241E-01  1.017E+05  0.000E+00  0.000E+00  3.274E+00  3.285E+00
  0.000E+00  2.304E-01  1.016E+05  0.000E+00  0.000E+00  3.001E+00  3.014E+00
  0.000E+00  2.367E-01  1.016E+05  0.000E+00  0.000E+00  2.718E+00  2.731E+00
  0.000E+00  2.430E-01  1.016E+05  0.000E+00  0.000E+00  2.434E+00  2.447E+00
  0.000E+00  2.493E-01  1.016E+05  0.000E+00  0.000E+00  2.158E+00  2.171E+00
  0.000E+00  2.557E-01  1.016E+05  0.000E+00  0.000E+00  1.898E+00  1.911E+00
  0.000E+00  2.620E-01  1.016E+05  0.000E+00  0.000E+00  1.658E+00  1.669E+00
  0.000E+00  2.683E-01  1.016E+05  0.000E+00  0.000E+00  1.441E+00  1.451E+00
  0.000E+00  2.746E-01  1.016E+05  0.000E+00  0.000E+00  1.248E+00  1.257E+00
  0.000E+00  2.809E-01  1.016E+05  0.000E+00  0.000E+00  1.079E+00  1.087E+00
  0.000E+00  2.872E-01  1.016E+05  0.000E+00  0.000E+00  9.334E-01  9.403E-01
  0.000E+00  2.935E-01  1.016E+05  0.000E+00  0.000E+00  8.097E-01  8.156E-01
  0.000E+00  2.998E-01  1.016E+05  0.000E+00  0.000E+00  7.056E-01  7.105E-01
  0.000E+00  3.062E-01  1.016E+05  0.000E+00  0.000E+00  6.188E-01  6.229E-01
  0.000E+00  3.125E-01  1.015E+05  0.000E+00  0.000E+00  5.471E-01  5.505E-01
  0.000E+00  3.188E-01  1.015E+05  0.000E+00  0.000E+00  4.881E-01  4.909E-01
  0.000E+00  3.251E-01  1.015E+05  0.000E+00  0.000E+00  4.399E-01  4.422E-01
  0.000E+00  3.314E-01  1.015E+05  0.000E+00  0.000E+00  4.005E-01  4.024E-01
  0.000E+00  3.377E-01  1.015E+05  0.000E+00  0.000E+00  3.683E-01  3.698E-01
  0.000E+00  3.440E-01  1.015E+05  0.000E+00  0.000E+00  3.419E-01  3.432E-01
  0.000E+00  3.503E-01  1.015E+05  0.000E+00  0.000E+00  3.202E-01  3.212E-01
  0.000E+00  3.567E-01  1.015E+05  0.000E+00  0.000E+00  3.021E-01  3.030E-01
  0.000E+00  3.630E-01  1.015E+05  0.000E+00  0.000E+00  2.869E-01  2.876E-01
  0.000E+00  3.693E-01  1.015E+05  0.000E+00  0.000E+00  2.740E-01  2.746E-01
  0.000E+00  3.756E-01  1.015E+05  0.000E+00  0.000E+00  2.628E-01  2.633E-01
  0.000E+00  3.819E-01  1.015E+05  0.000E+00  0.000E+00  2.530E-01  2.534E-01
  0.000E+00  3.882E-01  1.015E+05  0.000E+00  0.000E+00  2.442E-01  2.446E-01
  0.000E+00  3.945E-01  1.015E+05  0.000E+00  0.000E+00  2.362E-01  2.365E-01
  0.000E+00  4.008E-01  1.014E+05  0.000E+00  0.000E+00  2.287E-01  2.291E-01
  0.000E+00  4.072E-01  1.014E+05  0.000E+00  0.000E+00  2.217E-01  2.221E-01
  0.000E+00  4.135E-01  1.014E+05  0.000E+00  0.000E+00  2.151E-01  2.154E-01
  0.000E+00  4.198E-01  1.014E+05  0.000E+00  0.000E+00  2.086E-01  2.089E-01
  0.000E+00  4.261E-01  1.014E+05  0.000E+00  0.000E+00  2.023E-01  2.026E-01
  0.000E+00  4.324E-01  1.014E+05  0.000E+00  0.000E+00  1.962E-01  1.965E-01
  0.000E+00  4.387E-01  1.014E+05  0.000E+00  0.000E+00  1.901E-01  1.904E-01
  0.000E+00  4.450E-01  1.014E+05  0.000E+00  0.000E+00  1.840E-01  1.843E-01
  0.000E+00  4.513E-01  1.014E+05  0.000E+00  0.000E+00  1.781E-01  1.784E-01
  0.000E+00  4.577E-01  1.014E+05  0.000E+00  0.000E+00  1.722E-01  1.725E-01
  0.000E+00  4.640E-01  1.014E+05  0.000E+00  0.000E+00  1.663E-01  1.666E-01
  0.000E+00  4.703E-01  1.014E+05  0.000E+00  0.000E+00  1.606E-01  1.609E-01
  0.000E+00  4.766E-01  1.014E+05  0.000E+00  0.000E+00  1.550E-01  1.553E-01
  0.000E+00  4.829E-01  1.014E+05  0.000E+00  0.000E+00  1.495E-01  1.498E-01
  0.000E+00  4.892E-01  1.013E+05  0.000E+00  0.000E+00  1.444E-01  1.446E-01
  0.000E+00  4.955E-01  1.013E+05  0.000E+00  0.000E+00  1.397E-01  1.400E-01
  0.000E+00  5.018E-01  1.013E+05  0.000E+00  0.000E+00  1.364E-01  1.366E-01
  0.000E+00  5.050E-01  1.013E+05  0.000E+00  0.000E+00  1.364E-01  1.366E-01
  4.000E-03  0.000E+00  1.019E+05  8.159E-07  6.500E-02  7.953E-01  7.953E-01
  4.000E-03  3.156E-03  1.019E+05  8.159E-07  6.498E-02  7.953E-01  7.953E-01
  4.000E-03  9.469E-03  1.019E+05  3.451E-07  6.499E-02  7.953E-01  7.953E-01
  4.000E-03  1.578E-02  1.019E+05  2.431E-07  6.500E-02  7.954E-01  7.954E-01
  4.000E-03  2.209E-02  1.019E+05  2.385E-07  6.499E-02  7.955E-01  7.955E-01
  4.000E-03  2.841E-02  1.019E+05  7.592E-07  6.499E-02  7.957E-01  7.957E-01
  4.000E-03  3.472E-02  1.019E+05  1.433E-06  6.500E-02  7.961E-01  7.961E-01
  4.000E-03  4.103E-02  1.019E+05  7.270E-07  6.500E-02  7.969E-01  7.969E-01
  4.000E-03  4.734E-02  1.019E+05  1.560E-07  6.500E-02  7.982E-01  7.982E-01
  4.000E-03  5.366E-02  1.019E+05  7.211E-08  6.499E-02  8.006E-01  8.005E-01
  4.000E-03  5.997E-02  1.018E+05  1.917E-08  6.499E-02  8.045E-01  8.043E-01
  4.000E-03  6.628E-02  1.018E+05  6.982E-09  6.499E-02  8.109E-01  8.106E-01
  4.000E-03  7.259E-02  1.018E+05  2.514E-09  6.499E-02  8.213E-01  8.208E-01
  4.000E-03  7.891E-02  1.018E+05  1.418E-09  6.499E-02  8.377E-01  8.370E-01
  4.000E-03  8.522E-02  1.018E+05  1.084E-09  6.499E-02  8.633E-01  8.621E-01
  4.000E-03  9.153E-02  1.018E+05  9.356E-10  6.500E-02  9.020E-01  9.003E-01
  4.000E-03  9.784E-02  1.018E+05  8.275E-10  6.500E-02  9.590E-01  9.564E-01
  4.000E-03  1.042E-01  1.018E+05  7.198E-10  6.500E-02  1.040E+00  1.037E+00
  4.000E-03  1.105E-01  1.018E+05  5.953E-10  6.499E-02  1.152E+00  1.147E+00
  4.000E-03  1.168E-01  1.018E+05  4.932E-10  6.499E-02  1.300E+00  1.294E+00
  4.000E-03  1.231E-01  1.018E+05  3.826E-10  6.499E-02  1.489E+00  1.481E+00
  4.000E-03  1.294E-01  1.018E+05  3.215E-10  6.499E-02  1.719E+00  1.709E+00
  4.000E-03  1.357E-01  1.018E+05  3.236E-10  6.499E-02  1.988E+00  1.976E+00
  4.000E-03  1.420E-01  1.017E+05  2.783E-10  6.499E-02  2.288E+00  2.274E+00
  4.000E-03  1.483E-01  1.017E+05  2.050E-10  6.499E-02  2.608E+00  2.593E+00
  4.000E-03  1.547E-01  1.017E+05  1.548E-10  6.499E-02  2.931E+00  2.916E+00
  4.000E-03  1.610E-01  1.017E+05  1.206E-10  6.500E-02  3.242E+00  3.227E+00
  4.000E-03  1.673E-01  1.017E+05  7.150E-11  6.500E-02  3.521E+00  3.508E+00
  4.000E-03  1.736E-01  1.017E+05  2.542E-11  6.500E-02  3.753E+00  3.742E+00
  4.000E-03  1.799E-01  1.017E+05 -9.593E-12  6.499E-02  3.925E+00  3.917E+00
  4.000E-03  1.862E-01  1.017E+05  1.626E-11  6.499E-02  4.028E+00  4.023E+00
  4.000E-03  1.925E-01  1.017E+05  5.064E-11  6.499E-02  4.058E+00  4.057E+00
  4.000E-03  1.988E-01  1.017E+05  3.428E-11  6.499E-02  4.016E+00  4.018E+00
  4.000E-03  2.052E-01  1.017E+05  3.391E-11  6.499E-02  3.907E+00  3.911E+00
  4.000E-03  2.115E-01  1.017E+05  2.682E-11  6.499E-02  3.739E+00  3.747E+00
  4.000E-03  2.178E-01  1.017E+05  1.817E-11  6.499E-02  3.524E+00  3.534E+00
  4.000E-03  2.241E-01  1.017E+05  9.302E-12  6.499E-02  3.274E+00  3.285E+00
  4.000E-03  2.304E-01  1.016E+05 -1.214E-11  6.500E-02  3.001E+00  3.014E+00
  4.000E-03  2.367E-01  1.016E+05 -2.522E-11  6.500E-02  2.718E+00  2.731E+00
  4.000E-03  2.430E-01  1.016E+05  7.592E-12  6.500E-02  2.434E+00  2.447E+00
  4.000E-03  2.493E-01  1.016E+05 -8.176E-12  6.499E-02  2.158E+00  2.171E+00
  4.000E-03  2.557E-01  1.016E+05 -5.090E-12  6.499E-02  1.898E+00  1.911E+00
  4.000E-03  2.620E-01  1.016E+05  2.171E-11  6.499E-02  1.658E+00  1.669E+00
  4.000E-03  2.683E-01  1.016E+05  5.755E-12  6.499E-02  1.441E+00  1.451E+00
  4.000E-03  2.746E-01  1.016E+05  1.482E-11  6.499E-02  1.248E+00  1.257E+00
  4.000E-03  2.809E-01  1.016E+05  2.285E-11  6.499E-02  1.079E+00  1.087E+00
  4.000E-03  2.872E-01  1.016E+05  2.271E-11  6.500E-02  9.334E-01  9.403E-01
  4.000E-03  2.935E-01  1.016E+05 -2.890E-11  6.500E-02  8.097E-01  8.156E-01
  4.000E-03  2.998E-01  1.016E+05 -3.053E-11  6.500E-02  7.056E-01  7.105E-01
  4.000E-03  3.062E-01  1.016E+05 -1.717E-11  6.499E-02  6.188E-01  6.229E-01
  4.000E-03  3.125E-01  1.015E+05  2.709E-12  6.499E-02  5.471E-01  5.505E-01
  4.000E-03  3.188E-01  1.015E+05  3.508E-11  6.499E-02  4.881E-01  4.909E-01
  4.000E-03  3.251E-01  1.015E+05  8.754E-12  6.499E-02  4.399E-01  4.422E-01
  4.000E-03  3.314E-01  1.015E+05  3.178E-12  6.499E-02  4.005E-01  4.024E-01
  4.000E-03  3.377E-01  1.015E+05 -1.559E-13  6.499E-02  3.683E-01  3.698E-01
  4.000E-03  3.440E-01  1.015E+05  3.433E-12  6.499E-02  3.419E-01  3.432E-01
  4.000E-03  3.503E-01  1.015E+05  9.728E-12  6.499E-02  3.202E-01  3.212E-01
  4.000E-03  3.567E-01  1.015E+05  1.497E-11  6.500E-02  3.021E-01  3.030E-01
  4.000E-03  3.630E-01  1.015E+05 -2.696E-11  6.500E-02  2.869E-01  2.876E-01
  4.000E-03  3.693E-01  1.015E+05 -2.872E-11  6.500E-02  2.740E-01  2.746E-01
  4.000E-03  3.756E-01  1.015E+05 -2.169E-11  6.499E-02  2.628E-01  2.633E-01
  4.000E-03  3.819E-01  1.015E+05 -2.527E-12  6.499E-02  2.530E-01  2.534E-01
  4.000E-03  3.882E-01  1.015E+05  3.383E-11  6.499E-02  2.442E-01  2.446E-01
  4.000E-03  3.945E-01  1.015E+05  1.385E-11  6.499E-02  2.362E-01  2.365E-01
  4.000E-03  4.008E-01  1.014E+05  8.382E-12  6.499E-02  2.287E-01  2.291E-01
  4.000E-03  4.072E-01  1.014E+05 -2.852E-12  6.499E-02  2.217E-01  2.221E-01
  4.000E-03  4.135E-01  1.014E+05 -9.615E-12  6.499E-02  2.151E-01  2.154E-01
  4.000E-03  4.198E-01  1.014E+05 -7.949E-12  6.499E-02  2.086E-01  2.089E-01
  4.000E-03  4.261E-01  1.014E+05 -1.509E-11  6.500E-02  2.023E-01  2.026E-01
  4.000E-03  4.324E-01  1.014E+05  1.290E-12  6.500E-02  1.962E-01  1.965E-01
  4.000E-03  4.387E-01  1.014E+05  1.412E-11  6.500E-02  1.901E-01  1.904E-01
  4.000E-03  4.450E-01  1.014E+05 -2.755E-11  6.499E-02  1.840E-01  1.843E-01
  4.000E-03  4.513E-01  1.014E+05 -9.233E-12  6.499E-02  1.781E-01  1.784E-01
  4.000E-03  4.577E-01  1.014E+05  1.579E-11  6.499E-02  1.722E-01  1.725E-01
  4.000E-03  4.640E-01  1.014E+05 -2.513E-12  6.499E-02  1.663E-01  1.666E-01
  4.000E-03  4.703E-01  1.014E+05  6.372E-12  6.499E-02  1.606E-01  1.609E-01
  4.000E-03  4.766E-01  1.014E+05  1.108E-11  6.499E-02  1.550E-01  1.553E-01
  4.000E-03  4.829E-01  1.014E+05  8.661E-12  6.499E-02  1.495E-01  1.498E-01
  4.000E-03  4.892E-01  1.013E+05 -9.964E-12  6.499E-02  1.444E-01  1.446E-01
  4.000E-03  4.955E-01  1.013E+05 -4.065E-11  6.499E-02  1.397E-01  1.400E-01
  4.000E-03  5.018E-01  1.013E+05 -5.676E-11  6.500E-02  1.364E-01  1.366E-01
  4.000E-03  5.050E-01  1.013E+05 -5.676E-11  6.500E-02  1.364E-01  1.366E-01
  1.200E-02  0.000E+00  1.019E+05  1.109E-06  6.500E-02  7.938E-01  7.938E-01
  1.200E-02  3.156E-03  1.019E+05  1.109E-06  6.498E-02  7.938E-01  7.938E-01
  1.200E-02  9.469E-03  1.019E+05  4.972E-07  6.500E-02  7.938E-01  7.938E-01
  1.200E-02  1.578E-02  1.019E+05  2.964E-07  6.500E-02  7.938E-01  7.938E-01
  1.200E-02  2.209E-02  1.019E+05 -4.992E-07  6.500E-02  7.939E-01  7.939E-01
  1.200E-02  2.841E-02  1.019E+05  2.598E-06  6.500E-02  7.942E-01  7.941E-01
  1.200E-02  3.472E-02  1.019E+05  8.146E-06  6.500E-02  7.946E-01  7.945E-01
  1.200E-02  4.103E-02  1.019E+05  2.552E-06  6.501E-02  7.953E-01  7.953E-01
  1.200E-02  4.734E-02  1.019E+05 -6.636E-07  6.500E-02  7.967E-01  7.966E-01
  1.200E-02  5.366E-02  1.019E+05 -2.332E-08  6.500E-02  7.990E-01  7.989E-01
  1.200E-02  5.997E-02  1.018E+05 -4.739E-08  6.500E-02  8.029E-01  8.027E-01
  1.200E-02  6.628E-02  1.018E+05 -1.261E-08  6.500E-02  8.092E-01  8.090E-01
  1.200E-02  7.259E-02  1.018E+05 -4.136E-09  6.500E-02  8.196E-01  8.191E-01
  1.200E-02  7.891E-02  1.018E+05  4.654E-10  6.500E-02  8.360E-01  8.353E-01
  1.200E-02  8.522E-02  1.018E+05  2.095E-09  6.500E-02  8.615E-01  8.604E-01
  1.200E-02  9.153E-02  1.018E+05  2.519E-09  6.500E-02  9.002E-01  8.984E-01
  1.200E-02  9.784E-02  1.018E+05  2.444E-09  6.501E-02  9.571E-01  9.545E-01
  1.200E-02  1.042E-01  1.018E+05  2.203E-09  6.500E-02  1.038E+00  1.035E+00
  1.200E-02  1.105E-01  1.018E+05  1.893E-09  6.500E-02  1.150E+00  1.145E+00
  1.200E-02  1.168E-01  1.018E+05  1.607E-09  6.500E-02  1.298E+00  1.292E+00
  1.200E-02  1.231E-01  1.018E+05  1.321E-09  6.500E-02  1.487E+00  1.479E+00
  1.200E-02  1.294E-01  1.018E+05  1.113E-09  6.500E-02  1.717E+00  1.707E+00
  1.200E-02  1.357E-01  1.018E+05  9.060E-10  6.500E-02  1.986E+00  1.974E+00
  1.200E-02  1.420E-01  1.017E+05  6.527E-10  6.500E-02  2.286E+00  2.272E+00
  1.200E-02  1.483E-01  1.017E+05  4.391E-10  6.500E-02  2.606E+00  2.591E+00
  1.200E-02  1.547E-01  1.017E+05  2.861E-10  6.500E-02  2.929E+00  2.914E+00
  1.200E-02  1.610E-01  1.017E+05  1.966E-10  6.500E-02  3.240E+00  3.225E+00
  1.200E-02  1.673E-01  1.017E+05  1.293E-10  6.501E-02  3.519E+00  3.506E+00
  1.200E-02  1.736E-01  1.017E+05  9.979E-11  6.500E-02  3.752E+00  3.740E+00
  1.200E-02  1.799E-01  1.017E+05  1.055E-10  6.500E-02  3.924E+00  3.915E+00
  1.200E-02  1.862E-01  1.017E+05  1.715E-10  6.500E-02  4.027E+00  4.022E+00
  1.200E-02  1.925E-01  1.017E+05  2.046E-10  6.500E-02  4.057E+00  4.055E+00
  1.200E-02  1.988E-01  1.017E+05  1.545E-10  6.500E-02  4.015E+00  4.016E+00
  1.200E-02  2.052E-01  1.017E+05  1.072E-10  6.500E-02  3.905E+00  3.910E+00
  1.200E-02  2.115E-01  1.017E+05  6.922E-11  6.500E-02  3.738E+00  3.745E+00
  1.200E-02  2.178E-01  1.017E+05  3.925E-11  6.500E-02  3.523E+00  3.533E+00
  1.200E-02  2.241E-01  1.017E+05  1.340E-11  6.500E-02  3.273E+00  3.284E+00
  1.200E-02  2.304E-01  1.016E+05 -4.167E-11  6.500E-02  3.000E+00  3.013E+00
  1.200E-02  2.367E-01  1.016E+05 -9.515E-11  6.501E-02  2.717E+00  2.730E+00
  1.200E-02  2.430E-01  1.016E+05 -7.753E-11  6.500E-02  2.433E+00  2.447E+00
  1.200E-02  2.493E-01  1.016E+05 -6.976E-11  6.500E-02  2.158E+00  2.171E+00
  1.200E-02  2.557E-01  1.016E+05 -4.445E-12  6.500E-02  1.898E+00  1.910E+00
  1.200E-02  2.620E-01  1.016E+05  8.161E-11  6.500E-02  1.658E+00  1.669E+00
  1.200E-02  2.683E-01  1.016E+05  9.504E-11  6.500E-02  1.441E+00  1.451E+00
  1.200E-02  2.746E-01  1.016E+05  8.754E-11  6.500E-02  1.248E+00  1.257E+00
  1.200E-02  2.809E-01  1.016E+05  5.621E-11  6.500E-02  1.079E+00  1.087E+00
  1.200E-02  2.872E-01  1.016E+05  1.403E-11  6.500E-02  9.339E-01  9.408E-01
  1.200E-02  2.935E-01  1.016E+05 -6.787E-11  6.501E-02  8.104E-01  8.163E-01
  1.200E-02  2.998E-01  1.016E+05 -7.355E-11  6.500E-02  7.064E-01  7.114E-01
  1.200E-02  3.062E-01  1.016E+05 -5.473E-11  6.500E-02  6.198E-01  6.239E-01
  1.200E-02  3.125E-01  1.015E+05 -3.021E-11  6.500E-02  5.483E-01  5.517E-01
  1.200E-02  3.188E-01  1.015E+05  9.571E-12  6.500E-02  4.895E-01  4.923E-01
  1.200E-02  3.251E-01  1.015E+05  7.379E-12  6.500E-02  4.414E-01  4.437E-01
  1.200E-02  3.314E-01  1.015E+05  2.712E-11  6.500E-02  4.022E-01  4.040E-01
  1.200E-02  3.377E-01  1.015E+05  4.389E-11  6.500E-02  3.701E-01  3.716E-01
  1.200E-02  3.440E-01  1.015E+05  4.838E-11  6.500E-02  3.438E-01  3.451E-01
  1.200E-02  3.503E-01  1.015E+05  4.412E-11  6.500E-02  3.222E-01  3.233E-01
  1.200E-02  3.567E-01  1.015E+05  2.415E-11  6.500E-02  3.043E-01  3.051E-01
  1.200E-02  3.630E-01  1.015E+05 -4.879E-11  6.501E-02  2.892E-01  2.899E-01
  1.200E-02  3.693E-01  1.015E+05 -6.132E-11  6.500E-02  2.763E-01  2.769E-01
  1.200E-02  3.756E-01  1.015E+05 -4.565E-11  6.500E-02  2.652E-01  2.657E-01
  1.200E-02  3.819E-01  1.015E+05 -1.484E-11  6.500E-02  2.554E-01  2.559E-01
  1.200E-02  3.882E-01  1.015E+05  1.636E-11  6.500E-02  2.467E-01  2.471E-01
  1.200E-02  3.945E-01  1.015E+05 -9.166E-12  6.500E-02  2.387E-01  2.391E-01
  1.200E-02  4.008E-01  1.014E+05 -6.236E-12  6.500E-02  2.313E-01  2.316E-01
  1.200E-02  4.072E-01  1.014E+05  1.805E-11  6.500E-02  2.243E-01  2.246E-01
  1.200E-02  4.135E-01  1.014E+05  4.798E-11  6.500E-02  2.176E-01  2.179E-01
  1.200E-02  4.198E-01  1.014E+05  6.696E-11  6.500E-02  2.111E-01  2.114E-01
  1.200E-02  4.261E-01  1.014E+05  3.009E-11  6.500E-02  2.048E-01  2.051E-01
  1.200E-02  4.324E-01  1.014E+05 -1.452E-11  6.501E-02  1.986E-01  1.989E-01
  1.200E-02  4.387E-01  1.014E+05 -5.523E-11  6.500E-02  1.925E-01  1.928E-01
  1.200E-02  4.450E-01  1.014E+05 -1.082E-10  6.500E-02  1.864E-01  1.867E-01
  1.200E-02  4.513E-01  1.014E+05 -4.315E-11  6.500E-02  1.804E-01  1.807E-01
  1.200E-02  4.577E-01  1.014E+05  3.959E-11  6.500E-02  1.744E-01  1.747E-01
  1.200E-02  4.640E-01  1.014E+05  5.764E-11  6.500E-02  1.685E-01  1.688E-01
  1.200E-02  4.703E-01  1.014E+05  5.532E-11  6.500E-02  1.627E-01  1.630E-01
  1.200E-02  4.766E-01  1.014E+05  1.693E-11  6.500E-02  1.570E-01  1.573E-01
  1.200E-02  4.829E-01  1.014E+05 -3.805E-11  6.500E-02  1.515E-01  1.517E-01
  1.200E-02  4.892E-01  1.013E+05 -8.400E-11  6.500E-02  1.462E-01  1.464E-01
  1.200E-02  4.955E-01  1.013E+05 -1.117E-10  6.500E-02  1.415E-01  1.417E-01
  1.200E-02  5.018E-01  1.013E+05 -1.242E-10  6.500E-02  1.381E-01  1.383E-01
  1.200E-02  5.050E-01  1.013E+05 -1.242E-10  6.500E-02  1.381E-01  1.383E-01
  2.000E-02  0.000E+00  1.019E+05  5.386E-07  6.500E-02  7.909E-01  7.908E-01
  2.000E-02  3.156E-03  1.019E+05  5.386E-07  6.498E-02  7.909E-01  7.908E-01
  2.000E-02  9.469E-03  1.019E+05  3.616E-07  6.500E-02  7.909E-01  7.909E-01
  2.000E-02  1.578E-02  1.019E+05  2.741E-07  6.500E-02  7.909E-01  7.909E-01
  2.000E-02  2.209E-02  1.019E+05 -4.735E-07  6.500E-02  7.910E-01  7.910E-01
  2.000E-02  2.841E-02  1.019E+05  2.660E-06  6.501E-02  7.912E-01  7.912E-01
  2.000E-02  3.472E-02  1.019E+05  8.158E-06  6.500E-02  7.916E-01  7.916E-01
  2.000E-02  4.103E-02  1.019E+05  2.610E-06  6.500E-02  7.924E-01  7.923E-01
  2.000E-02  4.734E-02  1.019E+05 -6.335E-07  6.500E-02  7.937E-01  7.936E-01
  2.000E-02  5.366E-02  1.019E+05 -5.718E-11  6.500E-02  7.960E-01  7.959E-01
  2.000E-02  5.997E-02  1.018E+05 -3.266E-08  6.500E-02  7.998E-01  7.996E-01
  2.000E-02  6.628E-02  1.018E+05 -2.594E-09  6.500E-02  8.061E-01  8.058E-01
  2.000E-02  7.259E-02  1.018E+05  2.691E-09  6.500E-02  8.164E-01  8.159E-01
  2.000E-02  7.891E-02  1.018E+05  5.297E-09  6.500E-02  8.328E-01  8.320E-01
  2.000E-02  8.522E-02  1.018E+05  5.628E-09  6.500E-02  8.582E-01  8.570E-01
  2.000E-02  9.153E-02  1.018E+05  5.199E-09  6.500E-02  8.968E-01  8.950E-01
  2.000E-02  9.784E-02  1.018E+05  4.469E-09  6.501E-02  9.536E-01  9.510E-01
  2.000E-02  1.042E-01  1.018E+05  3.723E-09  6.500E-02  1.035E+00  1.031E+00
  2.000E-02  1.105E-01  1.018E+05  3.096E-09  6.500E-02  1.147E+00  1.141E+00
  2.000E-02  1.168E-01  1.018E+05  2.541E-09  6.500E-02  1.295E+00  1.288E+00
  2.000E-02  1.231E-01  1.018E+05  2.074E-09  6.500E-02  1.483E+00  1.475E+00
  2.000E-02  1.294E-01  1.018E+05  1.645E-09  6.500E-02  1.714E+00  1.703E+00
  2.000E-02  1.357E-01  1.018E+05  1.218E-09  6.500E-02  1.982E+00  1.970E+00
  2.000E-02  1.420E-01  1.017E+05  8.944E-10  6.500E-02  2.282E+00  2.269E+00
  2.000E-02  1.483E-01  1.017E+05  6.499E-10  6.500E-02  2.602E+00  2.587E+00
  2.000E-02  1.547E-01  1.017E+05  4.650E-10  6.500E-02  2.926E+00  2.911E+00
  2.000E-02  1.610E-01  1.017E+05  3.537E-10  6.500E-02  3.236E+00  3.222E+00
  2.000E-02  1.673E-01  1.017E+05  3.032E-10  6.501E-02  3.516E+00  3.503E+00
  2.000E-02  1.736E-01  1.017E+05  2.870E-10  6.500E-02  3.749E+00  3.737E+00
  2.000E-02  1.799E-01  1.017E+05  2.762E-10  6.500E-02  3.921E+00  3.913E+00
  2.000E-02  1.862E-01  1.017E+05  2.644E-10  6.500E-02  4.024E+00  4.019E+00
  2.000E-02  1.925E-01  1.017E+05  2.299E-10  6.500E-02  4.054E+00  4.053E+00
  2.000E-02  1.988E-01  1.017E+05  1.827E-10  6.500E-02  4.012E+00  4.014E+00
  2.000E-02  2.052E-01  1.017E+05  1.316E-10  6.500E-02  3.903E+00  3.908E+00
  2.000E-02  2.115E-01  1.017E+05  8.797E-11  6.500E-02  3.736E+00  3.743E+00
  2.000E-02  2.178E-01  1.017E+05  4.065E-11  6.500E-02  3.521E+00  3.531E+00
  2.000E-02  2.241E-01  1.017E+05 -1.664E-12  6.500E-02  3.271E+00  3.283E+00
  2.000E-02  2.304E-01  1.016E+05 -4.851E-11  6.500E-02  2.999E+00  3.011E+00
  2.000E-02  2.367E-01  1.016E+05 -7.409E-11  6.501E-02  2.716E+00  2.729E+00
  2.000E-02  2.430E-01  1.016E+05 -5.690E-11  6.500E-02  2.432E+00  2.446E+00
  2.000E-02  2.493E-01  1.016E+05 -1.449E-11  6.500E-02  2.157E+00  2.170E+00
  2.000E-02  2.557E-01  1.016E+05  4.545E-11  6.500E-02  1.898E+00  1.910E+00
  2.000E-02  2.620E-01  1.016E+05  8.381E-11  6.500E-02  1.658E+00  1.669E+00
  2.000E-02  2.683E-01  1.016E+05  8.310E-11  6.500E-02  1.441E+00  1.451E+00
  2.000E-02  2.746E-01  1.016E+05  4.970E-11  6.500E-02  1.248E+00  1.258E+00
  2.000E-02  2.809E-01  1.016E+05  1.251E-11  6.500E-02  1.080E+00  1.088E+00
  2.000E-02  2.872E-01  1.016E+05 -2.181E-11  6.500E-02  9.351E-01  9.420E-01
  2.000E-02  2.935E-01  1.016E+05 -4.883E-11  6.501E-02  8.119E-01  8.178E-01
  2.000E-02  2.998E-01  1.016E+05 -5.369E-11  6.500E-02  7.083E-01  7.132E-01
  2.000E-02  3.062E-01  1.016E+05 -4.741E-11  6.500E-02  6.220E-01  6.261E-01
  2.000E-02  3.125E-01  1.015E+05 -2.763E-11  6.500E-02  5.508E-01  5.542E-01
  2.000E-02  3.188E-01  1.015E+05 -1.392E-12  6.500E-02  4.923E-01  4.951E-01
  2.000E-02  3.251E-01  1.015E+05  2.621E-11  6.500E-02  4.445E-01  4.468E-01
  2.000E-02  3.314E-01  1.015E+05  4.376E-11  6.500E-02  4.055E-01  4.074E-01
  2.000E-02  3.377E-01  1.015E+05  4.878E-11  6.500E-02  3.737E-01  3.753E-01
  2.000E-02  3.440E-01  1.015E+05  3.265E-11  6.500E-02  3.477E-01  3.490E-01
  2.000E-02  3.503E-01  1.015E+05  1.318E-11  6.500E-02  3.263E-01  3.273E-01
  2.000E-02  3.567E-01  1.015E+05 -1.315E-11  6.500E-02  3.085E-01  3.094E-01
  2.000E-02  3.630E-01  1.015E+05 -3.621E-11  6.501E-02  2.936E-01  2.943E-01
  2.000E-02  3.693E-01  1.015E+05 -3.613E-11  6.500E-02  2.809E-01  2.815E-01
  2.000E-02  3.756E-01  1.015E+05 -2.536E-11  6.500E-02  2.699E-01  2.705E-01
  2.000E-02  3.819E-01  1.015E+05 -1.266E-11  6.500E-02  2.603E-01  2.607E-01
  2.000E-02  3.882E-01  1.015E+05 -9.916E-12  6.500E-02  2.516E-01  2.520E-01
  2.000E-02  3.945E-01  1.015E+05 -5.526E-12  6.500E-02  2.436E-01  2.440E-01
  2.000E-02  4.008E-01  1.014E+05  1.039E-11  6.500E-02  2.363E-01  2.366E-01
  2.000E-02  4.072E-01  1.014E+05  3.947E-11  6.500E-02  2.293E-01  2.296E-01
  2.000E-02  4.135E-01  1.014E+05  5.340E-11  6.500E-02  2.226E-01  2.229E-01
  2.000E-02  4.198E-01  1.014E+05  4.503E-11  6.500E-02  2.161E-01  2.164E-01
  2.000E-02  4.261E-01  1.014E+05 -4.806E-13  6.500E-02  2.097E-01  2.100E-01
  2.000E-02  4.324E-01  1.014E+05 -4.708E-11  6.501E-02  2.035E-01  2.038E-01
  2.000E-02  4.387E-01  1.014E+05 -6.479E-11  6.500E-02  1.972E-01  1.975E-01
  2.000E-02  4.450E-01  1.014E+05 -4.828E-11  6.500E-02  1.910E-01  1.913E-01
  2.000E-02  4.513E-01  1.014E+05  8.647E-12  6.500E-02  1.849E-01  1.852E-01
  2.000E-02  4.577E-01  1.014E+05  5.517E-11  6.500E-02  1.788E-01  1.791E-01
  2.000E-02  4.640E-01  1.014E+05  6.627E-11  6.500E-02  1.727E-01  1.730E-01
  2.000E-02  4.703E-01  1.014E+05  3.523E-11  6.500E-02  1.668E-01  1.670E-01
  2.000E-02  4.766E-01  1.014E+05 -1.514E-11  6.500E-02  1.609E-01  1.612E-01
  2.000E-02  4.829E-01  1.014E+05 -6.621E-11  6.500E-02  1.552E-01  1.555E-01
  2.000E-02  4.892E-01  1.013E+05 -9.101E-11  6.500E-02  1.497E-01  1.500E-01
  2.000E-02  4.955E-01  1.013E+05 -9.495E-11  6.500E-02  1.449E-01  1.451E-01
  2.000E-02  5.018E-01  1.013E+05 -9.693E-11  6.500E-02  1.414E-01  1.416E-01
  2.000E-02  5.050E-01  1.013E+05 -9.693E-11  6.500E-02  1.414E-01  1.416E-01
  2.800E-02  0.000E+00  1.019E+05  4.110E-07  6.500E-02  7.869E-01  7.868E-01
  2.800E-02  3.156E-03  1.019E+05  4.110E-07  6.498E-02  7.869E-01  7.868E-01
  2.800E-02  9.469E-03  1.019E+05  3.558E-07  6.500E-02  7.869E-01  7.869E-01
  2.800E-02  1.578E-02  1.019E+05  3.477E-07  6.500E-02  7.869E-01  7.869E-01
  2.800E-02  2.209E-02  1.019E+05  3.357E-07  6.500E-02  7.870E-01  7.870E-01
  2.800E-02  2.841E-02  1.019E+05  9.433E-07  6.501E-02  7.872E-01  7.872E-01
  2.800E-02  3.472E-02  1.019E+05  9.450E-07  6.500E-02  7.876E-01  7.876E-01
  2.800E-02  4.103E-02  1.019E+05  8.753E-07  6.500E-02  7.883E-01  7.883E-01
  2.800E-02  4.734E-02  1.019E+05  1.945E-07  6.500E-02  7.896E-01  7.895E-01
  2.800E-02  5.366E-02  1.019E+05  1.262E-07  6.500E-02  7.918E-01  7.917E-01
  2.800E-02  5.997E-02  1.018E+05  5.407E-08  6.500E-02  7.956E-01  7.954E-01
  2.800E-02  6.628E-02  1.018E+05  3.244E-08  6.500E-02  8.019E-01  8.016E-01
  2.800E-02  7.259E-02  1.018E+05  2.058E-08  6.500E-02  8.121E-01  8.116E-01
  2.800E-02  7.891E-02  1.018E+05  1.461E-08  6.500E-02  8.283E-01  8.276E-01
  2.800E-02  8.522E-02  1.018E+05  1.094E-08  6.500E-02  8.536E-01  8.525E-01
  2.800E-02  9.153E-02  1.018E+05  8.440E-09  6.500E-02  8.921E-01  8.903E-01
  2.800E-02  9.784E-02  1.018E+05  6.555E-09  6.501E-02  9.488E-01  9.462E-01
  2.800E-02  1.042E-01  1.018E+05  5.136E-09  6.500E-02  1.030E+00  1.026E+00
  2.800E-02  1.105E-01  1.018E+05  4.069E-09  6.500E-02  1.142E+00  1.136E+00
  2.800E-02  1.168E-01  1.018E+05  3.219E-09  6.500E-02  1.290E+00  1.283E+00
  2.800E-02  1.231E-01  1.018E+05  2.551E-09  6.500E-02  1.478E+00  1.470E+00
  2.800E-02  1.294E-01  1.018E+05  1.977E-09  6.500E-02  1.709E+00  1.698E+00
  2.800E-02  1.357E-01  1.018E+05  1.514E-09  6.500E-02  1.977E+00  1.965E+00
  2.800E-02  1.420E-01  1.017E+05  1.207E-09  6.500E-02  2.278E+00  2.264E+00
  2.800E-02  1.483E-01  1.017E+05  9.402E-10  6.500E-02  2.597E+00  2.582E+00
  2.800E-02  1.547E-01  1.017E+05  7.253E-10  6.500E-02  2.921E+00  2.906E+00
  2.800E-02  1.610E-01  1.017E+05  5.553E-10  6.500E-02  3.232E+00  3.217E+00
  2.800E-02  1.673E-01  1.017E+05  4.426E-10  6.501E-02  3.512E+00  3.499E+00
  2.800E-02  1.736E-01  1.017E+05  3.787E-10  6.500E-02  3.745E+00  3.733E+00
  2.800E-02  1.799E-01  1.017E+05  3.360E-10  6.500E-02  3.917E+00  3.909E+00
  2.800E-02  1.862E-01  1.017E+05  2.960E-10  6.500E-02  4.021E+00  4.015E+00
  2.800E-02  1.925E-01  1.017E+05  2.360E-10  6.500E-02  4.051E+00  4.049E+00
  2.800E-02  1.988E-01  1.017E+05  1.728E-10  6.500E-02  4.009E+00  4.011E+00
  2.800E-02  2.052E-01  1.017E+05  1.114E-10  6.500E-02  3.900E+00  3.905E+00
  2.800E-02  2.115E-01  1.017E+05  6.828E-11  6.500E-02  3.733E+00  3.741E+00
  2.800E-02  2.178E-01  1.017E+05  3.368E-11  6.500E-02  3.519E+00  3.529E+00
  2.800E-02  2.241E-01  1.017E+05  1.690E-11  6.500E-02  3.269E+00  3.281E+00
  2.800E-02  2.304E-01  1.016E+05 -5.097E-15  6.500E-02  2.997E+00  3.010E+00
  2.800E-02  2.367E-01  1.016E+05 -4.911E-12  6.501E-02  2.714E+00  2.728E+00
  2.800E-02  2.430E-01  1.016E+05  7.713E-12  6.500E-02  2.431E+00  2.445E+00
  2.800E-02  2.493E-01  1.016E+05  2.452E-11  6.500E-02  2.157E+00  2.170E+00
  2.800E-02  2.557E-01  1.016E+05  4.151E-11  6.500E-02  1.898E+00  1.910E+00
  2.800E-02  2.620E-01  1.016E+05  3.854E-11  6.500E-02  1.658E+00  1.669E+00
  2.800E-02  2.683E-01  1.016E+05  2.305E-11  6.500E-02  1.442E+00  1.452E+00
  2.800E-02  2.746E-01  1.016E+05  1.032E-13  6.500E-02  1.250E+00  1.259E+00
  2.800E-02  2.809E-01  1.016E+05 -8.044E-12  6.500E-02  1.082E+00  1.090E+00
  2.800E-02  2.872E-01  1.016E+05 -1.412E-11  6.500E-02  9.372E-01  9.441E-01
  2.800E-02  2.935E-01  1.016E+05 -1.914E-11  6.501E-02  8.145E-01  8.203E-01
  2.800E-02  2.998E-01  1.016E+05 -1.788E-11  6.500E-02  7.113E-01  7.162E-01
  2.800E-02  3.062E-01  1.016E+05 -1.546E-11  6.500E-02  6.255E-01  6.296E-01
  2.800E-02  3.125E-01  1.015E+05 -5.841E-12  6.500E-02  5.547E-01  5.581E-01
  2.800E-02  3.188E-01  1.015E+05  2.953E-12  6.500E-02  4.966E-01  4.994E-01
  2.800E-02  3.251E-01  1.015E+05  1.464E-11  6.500E-02  4.493E-01  4.515E-01
  2.800E-02  3.314E-01  1.015E+05  1.324E-11  6.500E-02  4.107E-01  4.125E-01
  2.800E-02  3.377E-01  1.015E+05  6.610E-12  6.500E-02  3.793E-01  3.808E-01