VARIABLES="XP","YP","P","U","V","TS","TF"
ZONE T="Zone 001"I=    62 J=    22 F=POINT
  0.000E+00  0.000E+00  3.563E+00  0.000E+00  0.000E+00  2.252E+00  2.250E+00
  0.000E+00  4.208E-03  3.563E+00  0.000E+00  0.000E+00  2.252E+00  2.250E+00
  0.000E+00  1.262E-02  3.502E+00  0.000E+00  0.000E+00  2.277E+00  2.250E+00
  0.000E+00  2.104E-02  3.442E+00  0.000E+00  0.000E+00  2.326E+00  2.251E+00
  0.000E+00  2.946E-02  3.382E+00  0.000E+00  0.000E+00  2.399E+00  2.253E+00
  0.000E+00  3.787E-02  3.323E+00  0.000E+00  0.000E+00  2.495E+00  2.256E+00
  0.000E+00  4.629E-02  3.263E+00  0.000E+00  0.000E+00  2.612E+00  2.260E+00
  0.000E+00  5.471E-02  3.203E+00  0.000E+00  0.000E+00  2.747E+00  2.266E+00
  0.000E+00  6.313E-02  3.143E+00  0.000E+00  0.000E+00  2.894E+00  2.274E+00
  0.000E+00  7.154E-02  3.083E+00  0.000E+00  0.000E+00  3.046E+00  2.283E+00
  0.000E+00  7.996E-02  3.023E+00  0.000E+00  0.000E+00  3.190E+00  2.294E+00
  0.000E+00  8.838E-02  2.963E+00  0.000E+00  0.000E+00  3.312E+00  2.306E+00
  0.000E+00  9.679E-02  2.903E+00  0.000E+00  0.000E+00  3.395E+00  2.320E+00
  0.000E+00  1.052E-01  2.844E+00  0.000E+00  0.000E+00  3.422E+00  2.333E+00
  0.000E+00  1.136E-01  2.784E+00  0.000E+00  0.000E+00  3.385E+00  2.345E+00
  0.000E+00  1.220E-01  2.724E+00  0.000E+00  0.000E+00  3.292E+00  2.357E+00
  0.000E+00  1.305E-01  2.664E+00  0.000E+00  0.000E+00  3.155E+00  2.366E+00
  0.000E+00  1.389E-01  2.604E+00  0.000E+00  0.000E+00  2.990E+00  2.374E+00
  0.000E+00  1.473E-01  2.544E+00  0.000E+00  0.000E+00  2.813E+00  2.379E+00
  0.000E+00  1.557E-01  2.484E+00  0.000E+00  0.000E+00  2.633E+00  2.382E+00
  0.000E+00  1.641E-01  2.424E+00  0.000E+00  0.000E+00  2.457E+00  2.382E+00
  0.000E+00  1.725E-01  2.365E+00  0.000E+00  0.000E+00  2.292E+00  2.381E+00
  0.000E+00  1.810E-01  2.305E+00  0.000E+00  0.000E+00  2.138E+00  2.378E+00
  0.000E+00  1.894E-01  2.245E+00  0.000E+00  0.000E+00  1.997E+00  2.374E+00
  0.000E+00  1.978E-01  2.185E+00  0.000E+00  0.000E+00  1.870E+00  2.367E+00
  0.000E+00  2.062E-01  2.125E+00  0.000E+00  0.000E+00  1.755E+00  2.360E+00
  0.000E+00  2.146E-01  2.065E+00  0.000E+00  0.000E+00  1.652E+00  2.351E+00
  0.000E+00  2.230E-01  2.005E+00  0.000E+00  0.000E+00  1.561E+00  2.342E+00
  0.000E+00  2.315E-01  1.946E+00  0.000E+00  0.000E+00  1.480E+00  2.331E+00
  0.000E+00  2.399E-01  1.886E+00  0.000E+00  0.000E+00  1.409E+00  2.320E+00
  0.000E+00  2.483E-01  1.826E+00  0.000E+00  0.000E+00  1.346E+00  2.308E+00
  0.000E+00  2.567E-01  1.766E+00  0.000E+00  0.000E+00  1.291E+00  2.296E+00
  0.000E+00  2.651E-01  1.706E+00  0.000E+00  0.000E+00  1.243E+00  2.283E+00
  0.000E+00  2.735E-01  1.646E+00  0.000E+00  0.000E+00  1.201E+00  2.270E+00
  0.000E+00  2.820E-01  1.586E+00  0.000E+00  0.000E+00  1.164E+00  2.257E+00
  0.000E+00  2.904E-01  1.527E+00  0.000E+00  0.000E+00  1.132E+00  2.243E+00
  0.000E+00  2.988E-01  1.467E+00  0.000E+00  0.000E+00  1.104E+00  2.230E+00
  0.000E+00  3.072E-01  1.407E+00  0.000E+00  0.000E+00  1.080E+00  2.216E+00
  0.000E+00  3.156E-01  1.347E+00  0.000E+00  0.000E+00  1.058E+00  2.202E+00
  0.000E+00  3.240E-01  1.287E+00  0.000E+00  0.000E+00  1.039E+00  2.188E+00
  0.000E+00  3.325E-01  1.227E+00  0.000E+00  0.000E+00  1.022E+00  2.174E+00
  0.000E+00  3.409E-01  1.167E+00  0.000E+00  0.000E+00  1.007E+00  2.160E+00
  0.000E+00  3.493E-01  1.107E+00  0.000E+00  0.000E+00  9.932E-01  2.145E+00
  0.000E+00  3.577E-01  1.048E+00  0.000E+00  0.000E+00  9.810E-01  2.131E+00
  0.000E+00  3.661E-01  9.878E-01  0.000E+00  0.000E+00  9.700E-01  2.117E+00
  0.000E+00  3.745E-01  9.279E-01  0.000E+00  0.000E+00  9.599E-01  2.103E+00
  0.000E+00  3.830E-01  8.680E-01  0.000E+00  0.000E+00  9.508E-01  2.090E+00
  0.000E+00  3.914E-01  8.082E-01  0.000E+00  0.000E+00  9.425E-01  2.076E+00
  0.000E+00  3.998E-01  7.483E-01  0.000E+00  0.000E+00  9.349E-01  2.062E+00
  0.000E+00  4.082E-01  6.884E-01  0.000E+00  0.000E+00  9.281E-01  2.048E+00
  0.000E+00  4.166E-01  6.286E-01  0.000E+00  0.000E+00  9.220E-01  2.035E+00
  0.000E+00  4.250E-01  5.687E-01  0.000E+00  0.000E+00  9.167E-01  2.021E+00
  0.000E+00  4.335E-01  5.088E-01  0.000E+00  0.000E+00  9.120E-01  2.008E+00
  0.000E+00  4.419E-01  4.490E-01  0.000E+00  0.000E+00  9.081E-01  1.995E+00
  0.000E+00  4.503E-01  3.891E-01  0.000E+00  0.000E+00  9.048E-01  1.982E+00
  0.000E+00  4.587E-01  3.293E-01  0.000E+00  0.000E+00  9.022E-01  1.969E+00
  0.000E+00  4.671E-01  2.694E-01  0.000E+00  0.000E+00  9.002E-01  1.956E+00
  0.000E+00  4.755E-01  2.095E-01  0.000E+00  0.000E+00  8.986E-01  1.943E+00
  0.000E+00  4.840E-01  1.497E-01  0.000E+00  0.000E+00  8.976E-01  1.930E+00
  0.000E+00  4.924E-01  8.980E-02  0.000E+00  0.000E+00  8.969E-01  1.918E+00
  0.000E+00  5.008E-01  2.993E-02  0.000E+00  0.000E+00  8.965E-01  1.906E+00
  0.000E+00  5.050E-01  2.993E-02  0.000E+00  0.000E+00  8.965E-01  1.906E+00
  4.000E-03  0.000E+00  3.593E+00  3.329E-04  6.500E-02  2.252E+00  2.250E+00
  4.000E-03  4.208E-03  3.563E+00  3.329E-04  6.471E-02  2.252E+00  2.250E+00
  4.000E-03  1.262E-02  3.502E+00  1.821E-04  6.456E-02  2.277E+00  2.250E+00
  4.000E-03  2.104E-02  3.442E+00  8.704E-05  6.444E-02  2.326E+00  2.251E+00
  4.000E-03  2.946E-02  3.382E+00  4.364E-05  6.436E-02  2.399E+00  2.253E+00
  4.000E-03  3.787E-02  3.323E+00  2.315E-05  6.433E-02  2.495E+00  2.256E+00
  4.000E-03  4.629E-02  3.263E+00  1.271E-05  6.431E-02  2.612E+00  2.260E+00
  4.000E-03  5.471E-02  3.203E+00  7.408E-06  6.430E-02  2.747E+00  2.266E+00
  4.000E-03  6.313E-02  3.143E+00  4.476E-06  6.429E-02  2.894E+00  2.274E+00
  4.000E-03  7.154E-02  3.083E+00  2.858E-06  6.429E-02  3.046E+00  2.283E+00
  4.000E-03  7.996E-02  3.023E+00  1.904E-06  6.429E-02  3.190E+00  2.294E+00
  4.000E-03  8.838E-02  2.963E+00  1.245E-06  6.428E-02  3.312E+00  2.306E+00
  4.000E-03  9.679E-02  2.903E+00  9.255E-07  6.428E-02  3.395E+00  2.320E+00
  4.000E-03  1.052E-01  2.844E+00  5.640E-07  6.428E-02  3.422E+00  2.333E+00
  4.000E-03  1.136E-01  2.784E+00  3.912E-07  6.428E-02  3.385E+00  2.345E+00
  4.000E-03  1.220E-01  2.724E+00  3.095E-07  6.428E-02  3.292E+00  2.357E+00
  4.000E-03  1.305E-01  2.664E+00  2.540E-07  6.428E-02  3.155E+00  2.366E+00
  4.000E-03  1.389E-01  2.604E+00  1.163E-07  6.428E-02  2.990E+00  2.374E+00
  4.000E-03  1.473E-01  2.544E+00  5.889E-08  6.428E-02  2.813E+00  2.379E+00
  4.000E-03  1.557E-01  2.484E+00  4.237E-08  6.428E-02  2.633E+00  2.382E+00
  4.000E-03  1.641E-01  2.424E+00  1.190E-07  6.428E-02  2.457E+00  2.382E+00
  4.000E-03  1.725E-01  2.365E+00  5.527E-08  6.428E-02  2.292E+00  2.381E+00
  4.000E-03  1.810E-01  2.305E+00  1.174E-07  6.428E-02  2.138E+00  2.378E+00
  4.000E-03  1.894E-01  2.245E+00  4.266E-08  6.428E-02  1.997E+00  2.374E+00
  4.000E-03  1.978E-01  2.185E+00  1.446E-08  6.428E-02  1.870E+00  2.367E+00
  4.000E-03  2.062E-01  2.125E+00  1.249E-08  6.428E-02  1.755E+00  2.360E+00
  4.000E-03  2.146E-01  2.065E+00  1.095E-08  6.428E-02  1.652E+00  2.351E+00
  4.000E-03  2.230E-01  2.005E+00  5.092E-09  6.428E-02  1.561E+00  2.342E+00
  4.000E-03  2.315E-01  1.946E+00  1.714E-09  6.428E-02  1.480E+00  2.331E+00
  4.000E-03  2.399E-01  1.886E+00  9.303E-10  6.428E-02  1.409E+00  2.320E+00
  4.000E-03  2.483E-01  1.826E+00  6.167E-10  6.428E-02  1.346E+00  2.308E+00
  4.000E-03  2.567E-01  1.766E+00  4.084E-10  6.428E-02  1.291E+00  2.296E+00
  4.000E-03  2.651E-01  1.706E+00  2.828E-10  6.428E-02  1.243E+00  2.283E+00
  4.000E-03  2.735E-01  1.646E+00  2.261E-10  6.428E-02  1.201E+00  2.270E+00
  4.000E-03  2.820E-01  1.586E+00  1.645E-10  6.428E-02  1.164E+00  2.257E+00
  4.000E-03  2.904E-01  1.527E+00  1.058E-10  6.428E-02  1.132E+00  2.243E+00
  4.000E-03  2.988E-01  1.467E+00  6.252E-11  6.428E-02  1.104E+00  2.230E+00
  4.000E-03  3.072E-01  1.407E+00  4.606E-11  6.428E-02  1.080E+00  2.216E+00
  4.000E-03  3.156E-01  1.347E+00  6.518E-11  6.428E-02  1.058E+00  2.202E+00
  4.000E-03  3.240E-01  1.287E+00  2.506E-11  6.428E-02  1.039E+00  2.188E+00
  4.000E-03  3.325E-01  1.227E+00  8.840E-12  6.428E-02  1.022E+00  2.174E+00
  4.000E-03  3.409E-01  1.167E+00 -5.287E-12  6.428E-02  1.007E+00  2.160E+00
  4.000E-03  3.493E-01  1.107E+00 -3.258E-11  6.428E-02  9.932E-01  2.145E+00
  4.000E-03  3.577E-01  1.048E+00  9.529E-12  6.428E-02  9.810E-01  2.131E+00
  4.000E-03  3.661E-01  9.878E-01  1.990E-11  6.428E-02  9.700E-01  2.117E+00
  4.000E-03  3.745E-01  9.279E-01 -1.409E-11  6.428E-02  9.599E-01  2.103E+00
  4.000E-03  3.830E-01  8.680E-01 -1.249E-11  6.428E-02  9.508E-01  2.090E+00
  4.000E-03  3.914E-01  8.082E-01  3.385E-11  6.428E-02  9.425E-01  2.076E+00
  4.000E-03  3.998E-01  7.483E-01  6.507E-11  6.428E-02  9.349E-01  2.062E+00
  4.000E-03  4.082E-01  6.884E-01  4.794E-11  6.428E-02  9.281E-01  2.048E+00
  4.000E-03  4.166E-01  6.286E-01  2.639E-11  6.428E-02  9.220E-01  2.035E+00
  4.000E-03  4.250E-01  5.687E-01  6.142E-12  6.428E-02  9.167E-01  2.021E+00
  4.000E-03  4.335E-01  5.088E-01 -3.344E-11  6.428E-02  9.120E-01  2.008E+00
  4.000E-03  4.419E-01  4.490E-01 -5.407E-11  6.428E-02  9.081E-01  1.995E+00
  4.000E-03  4.503E-01  3.891E-01 -3.882E-11  6.428E-02  9.048E-01  1.982E+00
  4.000E-03  4.587E-01  3.293E-01 -2.677E-11  6.428E-02  9.022E-01  1.969E+00
  4.000E-03  4.671E-01  2.694E-01 -1.159E-10  6.428E-02  9.002E-01  1.956E+00
  4.000E-03  4.755E-01  2.095E-01  2.400E-10  6.428E-02  8.986E-01  1.943E+00
  4.000E-03  4.840E-01  1.497E-01  6.876E-09  6.428E-02  8.976E-01  1.930E+00
  4.000E-03  4.924E-01  8.980E-02  5.682E-09  6.428E-02  8.969E-01  1.918E+00
  4.000E-03  5.008E-01  2.993E-02  6.945E-10  6.428E-02  8.965E-01  1.906E+00
  4.000E-03  5.050E-01  0.000E+00  6.945E-10  6.428E-02  8.965E-01  1.906E+00
  1.200E-02  0.000E+00  3.592E+00  2.688E-04  6.500E-02  2.252E+00  2.250E+00
  1.200E-02  4.208E-03  3.562E+00  2.688E-04  6.510E-02  2.252E+00  2.250E+00
  1.200E-02  1.262E-02  3.502E+00  1.652E-04  6.513E-02  2.277E+00  2.250E+00
  1.200E-02  2.104E-02  3.442E+00  9.086E-05  6.514E-02  2.326E+00  2.251E+00
  1.200E-02  2.946E-02  3.382E+00  5.146E-05  6.512E-02  2.399E+00  2.253E+00
  1.200E-02  3.787E-02  3.323E+00  3.028E-05  6.511E-02  2.495E+00  2.256E+00
  1.200E-02  4.629E-02  3.263E+00  1.828E-05  6.510E-02  2.612E+00  2.260E+00
  1.200E-02  5.471E-02  3.203E+00  1.135E-05  6.509E-02  2.747E+00  2.266E+00
  1.200E-02  6.313E-02  3.143E+00  7.249E-06  6.509E-02  2.894E+00  2.274E+00
  1.200E-02  7.154E-02  3.083E+00  4.761E-06  6.508E-02  3.046E+00  2.283E+00
  1.200E-02  7.996E-02  3.023E+00  3.199E-06  6.508E-02  3.190E+00  2.294E+00
  1.200E-02  8.838E-02  2.963E+00  2.164E-06  6.508E-02  3.312E+00  2.306E+00
  1.200E-02  9.679E-02  2.903E+00  1.486E-06  6.508E-02  3.395E+00  2.319E+00
  1.200E-02  1.052E-01  2.844E+00  1.016E-06  6.508E-02  3.422E+00  2.332E+00
  1.200E-02  1.136E-01  2.784E+00  7.095E-07  6.508E-02  3.385E+00  2.345E+00
  1.200E-02  1.220E-01  2.724E+00  5.063E-07  6.508E-02  3.292E+00  2.356E+00
  1.200E-02  1.305E-01  2.664E+00  3.537E-07  6.508E-02  3.155E+00  2.366E+00
  1.200E-02  1.389E-01  2.604E+00  2.377E-07  6.508E-02  2.990E+00  2.373E+00
  1.200E-02  1.473E-01  2.544E+00  1.690E-07  6.508E-02  2.813E+00  2.378E+00
  1.200E-02  1.557E-01  2.484E+00  1.284E-07  6.508E-02  2.633E+00  2.381E+00
  1.200E-02  1.641E-01  2.424E+00  1.014E-07  6.508E-02  2.458E+00  2.382E+00
  1.200E-02  1.725E-01  2.365E+00  8.306E-08  6.508E-02  2.292E+00  2.381E+00
  1.200E-02  1.810E-01  2.305E+00  6.221E-08  6.508E-02  2.138E+00  2.378E+00
  1.200E-02  1.894E-01  2.245E+00  2.548E-08  6.508E-02  1.997E+00  2.373E+00
  1.200E-02  1.978E-01  2.185E+00  1.522E-08  6.508E-02  1.870E+00  2.367E+00
  1.200E-02  2.062E-01  2.125E+00  4.055E-08  6.508E-02  1.755E+00  2.360E+00
  1.200E-02  2.146E-01  2.065E+00  4.533E-08  6.508E-02  1.652E+00  2.351E+00
  1.200E-02  2.230E-01  2.005E+00  1.805E-08  6.508E-02  1.561E+00  2.342E+00
  1.200E-02  2.315E-01  1.946E+00  3.705E-09  6.508E-02  1.480E+00  2.331E+00
  1.200E-02  2.399E-01  1.886E+00  2.068E-09  6.508E-02  1.409E+00  2.320E+00
  1.200E-02  2.483E-01  1.826E+00  1.563E-09  6.508E-02  1.346E+00  2.308E+00
  1.200E-02  2.567E-01  1.766E+00  1.171E-09  6.508E-02  1.291E+00  2.296E+00
  1.200E-02  2.651E-01  1.706E+00  7.979E-10  6.508E-02  1.243E+00  2.284E+00
  1.200E-02  2.735E-01  1.646E+00  5.530E-10  6.508E-02  1.201E+00  2.271E+00
  1.200E-02  2.820E-01  1.586E+00  4.162E-10  6.508E-02  1.164E+00  2.257E+00
  1.200E-02  2.904E-01  1.527E+00  2.848E-10  6.508E-02  1.132E+00  2.244E+00
  1.200E-02  2.988E-01  1.467E+00  1.629E-10  6.508E-02  1.104E+00  2.230E+00
  1.200E-02  3.072E-01  1.407E+00  1.167E-10  6.508E-02  1.080E+00  2.216E+00
  1.200E-02  3.156E-01  1.347E+00  1.250E-10  6.508E-02  1.058E+00  2.202E+00
  1.200E-02  3.240E-01  1.287E+00  6.575E-11  6.508E-02  1.039E+00  2.188E+00
  1.200E-02  3.325E-01  1.227E+00  3.626E-11  6.508E-02  1.022E+00  2.174E+00
  1.200E-02  3.409E-01  1.167E+00  1.254E-11  6.508E-02  1.007E+00  2.160E+00
  1.200E-02  3.493E-01  1.107E+00 -2.089E-11  6.508E-02  9.932E-01  2.146E+00
  1.200E-02  3.577E-01  1.048E+00  3.367E-11  6.508E-02  9.810E-01  2.132E+00
  1.200E-02  3.661E-01  9.878E-01  7.296E-11  6.508E-02  9.700E-01  2.118E+00
  1.200E-02  3.745E-01  9.279E-01  1.549E-11  6.508E-02  9.600E-01  2.104E+00
  1.200E-02  3.830E-01  8.680E-01 -2.776E-11  6.508E-02  9.508E-01  2.090E+00
  1.200E-02  3.914E-01  8.082E-01  2.815E-11  6.508E-02  9.425E-01  2.076E+00
  1.200E-02  3.998E-01  7.483E-01  7.510E-11  6.508E-02  9.349E-01  2.063E+00
  1.200E-02  4.082E-01  6.884E-01  6.110E-11  6.508E-02  9.281E-01  2.049E+00
  1.200E-02  4.166E-01  6.286E-01  3.876E-11  6.508E-02  9.221E-01  2.036E+00
  1.200E-02  4.250E-01  5.687E-01  1.997E-11  6.508E-02  9.167E-01  2.022E+00
  1.200E-02  4.335E-01  5.088E-01  2.923E-12  6.508E-02  9.121E-01  2.009E+00
  1.200E-02  4.419E-01  4.490E-01  3.702E-12  6.508E-02  9.081E-01  1.996E+00
  1.200E-02  4.503E-01  3.891E-01  6.128E-12  6.508E-02  9.049E-01  1.982E+00
  1.200E-02  4.587E-01  3.293E-01 -2.547E-11  6.508E-02  9.022E-01  1.969E+00
  1.200E-02  4.671E-01  2.694E-01 -1.273E-10  6.508E-02  9.002E-01  1.957E+00
  1.200E-02  4.755E-01  2.095E-01  3.792E-10  6.508E-02  8.987E-01  1.944E+00
  1.200E-02  4.840E-01  1.497E-01  2.051E-09  6.508E-02  8.976E-01  1.931E+00
  1.200E-02  4.924E-01  8.980E-02  1.512E-09  6.508E-02  8.969E-01  1.919E+00
  1.200E-02  5.008E-01  2.993E-02 -2.454E-10  6.508E-02  8.966E-01  1.907E+00
  1.200E-02  5.050E-01  0.000E+00 -2.454E-10  6.508E-02  8.966E-01  1.907E+00
  2.000E-02  0.000E+00  3.592E+00  1.722E-04  6.500E-02  2.252E+00  2.250E+00
  2.000E-02  4.208E-03  3.562E+00  1.722E-04  6.506E-02  2.252E+00  2.250E+00
  2.000E-02  1.262E-02  3.502E+00  1.323E-04  6.508E-02  2.277E+00  2.250E+00
  2.000E-02  2.104E-02  3.442E+00  8.984E-05  6.510E-02  2.326E+00  2.251E+00
  2.000E-02  2.946E-02  3.382E+00  5.890E-05  6.511E-02  2.399E+00  2.253E+00
  2.000E-02  3.787E-02  3.322E+00  3.849E-05  6.510E-02  2.495E+00  2.256E+00
  2.000E-02  4.629E-02  3.263E+00  2.524E-05  6.510E-02  2.612E+00  2.260E+00
  2.000E-02  5.471E-02  3.203E+00  1.665E-05  6.509E-02  2.747E+00  2.266E+00
  2.000E-02  6.313E-02  3.143E+00  1.110E-05  6.509E-02  2.894E+00  2.274E+00
  2.000E-02  7.154E-02  3.083E+00  7.489E-06  6.509E-02  3.046E+00  2.283E+00
  2.000E-02  7.996E-02  3.023E+00  5.104E-06  6.508E-02  3.190E+00  2.294E+00
  2.000E-02  8.838E-02  2.963E+00  3.508E-06  6.508E-02  3.312E+00  2.306E+00
  2.000E-02  9.679E-02  2.903E+00  2.420E-06  6.508E-02  3.395E+00  2.319E+00
  2.000E-02  1.052E-01  2.844E+00  1.674E-06  6.508E-02  3.422E+00  2.332E+00
  2.000E-02  1.136E-01  2.784E+00  1.158E-06  6.508E-02  3.385E+00  2.345E+00
  2.000E-02  1.220E-01  2.724E+00  7.994E-07  6.508E-02  3.292E+00  2.356E+00
  2.000E-02  1.305E-01  2.664E+00  5.658E-07  6.508E-02  3.155E+00  2.366E+00
  2.000E-02  1.389E-01  2.604E+00  4.191E-07  6.508E-02  2.990E+00  2.373E+00
  2.000E-02  1.473E-01  2.544E+00  2.988E-07  6.508E-02  2.813E+00  2.378E+00
  2.000E-02  1.557E-01  2.484E+00  2.008E-07  6.508E-02  2.633E+00  2.381E+00
  2.000E-02  1.641E-01  2.424E+00  1.489E-07  6.508E-02  2.458E+00  2.382E+00
  2.000E-02  1.725E-01  2.365E+00  1.114E-07  6.508E-02  2.292E+00  2.381E+00
  2.000E-02  1.810E-01  2.305E+00  6.784E-08  6.508E-02  2.138E+00  2.378E+00
  2.000E-02  1.894E-01  2.245E+00  3.499E-08  6.508E-02  1.997E+00  2.373E+00
  2.000E-02  1.978E-01  2.185E+00  2.650E-08  6.508E-02  1.870E+00  2.367E+00
  2.000E-02  2.062E-01  2.125E+00  4.885E-08  6.508E-02  1.755E+00  2.360E+00
  2.000E-02  2.146E-01  2.065E+00  5.060E-08  6.508E-02  1.652E+00  2.351E+00
  2.000E-02  2.230E-01  2.005E+00  2.166E-08  6.508E-02  1.561E+00  2.342E+00
  2.000E-02  2.315E-01  1.946E+00  6.015E-09  6.508E-02  1.480E+00  2.331E+00
  2.000E-02  2.399E-01  1.886E+00  3.593E-09  6.508E-02  1.409E+00  2.320E+00
  2.000E-02  2.483E-01  1.826E+00  2.688E-09  6.508E-02  1.346E+00  2.308E+00
  2.000E-02  2.567E-01  1.766E+00  2.011E-09  6.508E-02  1.291E+00  2.296E+00
  2.000E-02  2.651E-01  1.706E+00  1.323E-09  6.508E-02  1.243E+00  2.284E+00
  2.000E-02  2.735E-01  1.646E+00  8.250E-10  6.508E-02  1.201E+00  2.271E+00
  2.000E-02  2.820E-01  1.586E+00  5.639E-10  6.508E-02  1.164E+00  2.257E+00
  2.000E-02  2.904E-01  1.527E+00  4.027E-10  6.508E-02  1.132E+00  2.244E+00
  2.000E-02  2.988E-01  1.467E+00  2.916E-10  6.508E-02  1.104E+00  2.230E+00
  2.000E-02  3.072E-01  1.407E+00  2.151E-10  6.508E-02  1.080E+00  2.216E+00
  2.000E-02  3.156E-01  1.347E+00  1.661E-10  6.508E-02  1.058E+00  2.202E+00
  2.000E-02  3.240E-01  1.287E+00  1.135E-10  6.508E-02  1.039E+00  2.188E+00
  2.000E-02  3.325E-01  1.227E+00  7.659E-11  6.508E-02  1.022E+00  2.174E+00
  2.000E-02  3.409E-01  1.167E+00  5.116E-11  6.508E-02  1.007E+00  2.160E+00
  2.000E-02  3.493E-01  1.107E+00  3.515E-11  6.508E-02  9.933E-01  2.146E+00
  2.000E-02  3.577E-01  1.048E+00  4.848E-11  6.508E-02  9.811E-01  2.132E+00
  2.000E-02  3.661E-01  9.878E-01  8.061E-11  6.508E-02  9.700E-01  2.118E+00
  2.000E-02  3.745E-01  9.279E-01  4.639E-11  6.508E-02  9.600E-01  2.104E+00
  2.000E-02  3.830E-01  8.680E-01 -1.094E-11  6.508E-02  9.508E-01  2.090E+00
  2.000E-02  3.914E-01  8.082E-01  2.147E-12  6.508E-02  9.425E-01  2.077E+00
  2.000E-02  3.998E-01  7.483E-01  2.372E-11  6.508E-02  9.350E-01  2.063E+00
  2.000E-02  4.082E-01  6.884E-01  2.658E-11  6.508E-02  9.282E-01  2.049E+00
  2.000E-02  4.166E-01  6.286E-01  2.134E-11  6.508E-02  9.221E-01  2.036E+00
  2.000E-02  4.250E-01  5.687E-01  1.586E-11  6.508E-02  9.167E-01  2.022E+00
  2.000E-02  4.335E-01  5.088E-01  1.274E-11  6.508E-02  9.121E-01  2.009E+00
  2.000E-02  4.419E-01  4.490E-01  5.209E-11  6.508E-02  9.082E-01  1.996E+00
  2.000E-02  4.503E-01  3.891E-01  8.063E-11  6.508E-02  9.049E-01  1.983E+00
  2.000E-02  4.587E-01  3.293E-01  2.830E-11  6.508E-02  9.023E-01  1.970E+00
  2.000E-02  4.671E-01  2.694E-01 -2.939E-12  6.508E-02  9.002E-01  1.957E+00
  2.000E-02  4.755E-01  2.095E-01  1.900E-10  6.508E-02  8.987E-01  1.944E+00
  2.000E-02  4.840E-01  1.497E-01  3.236E-10  6.508E-02  8.976E-01  1.932E+00
  2.000E-02  4.924E-01  8.980E-02  2.895E-10  6.508E-02  8.969E-01  1.919E+00
  2.000E-02  5.008E-01  2.993E-02  4.023E-11  6.508E-02  8.966E-01  1.907E+00
  2.000E-02  5.050E-01  0.000E+00  4.023E-11  6.508E-02  8.966E-01  1.907E+00
  2.800E-02  0.000E+00  3.592E+00  1.246E-04  6.500E-02  2.252E+00  2.250E+00
  2.800E-02  4.208E-03  3.562E+00  1.246E-04  6.503E-02  2.252E+00  2.250E+00
  2.800E-02  1.262E-02  3.502E+00  1.065E-04  6.506E-02  2.277E+00  2.250E+00
  2.800E-02  2.104E-02  3.442E+00  8.065E-05  6.508E-02  2.326E+00  2.251E+00
  2.800E-02  2.946E-02  3.382E+00  5.732E-05  6.509E-02  2.399E+00  2.253E+00
  2.800E-02  3.787E-02  3.322E+00  3.981E-05  6.509E-02  2.495E+00  2.256E+00
  2.800E-02  4.629E-02  3.263E+00  2.741E-05  6.509E-02  2.612E+00  2.260E+00
  2.800E-02  5.471E-02  3.203E+00  1.882E-05  6.509E-02  2.747E+00  2.266E+00
  2.800E-02  6.313E-02  3.143E+00  1.294E-05  6.509E-02  2.894E+00  2.274E+00
  2.800E-02  7.154E-02  3.083E+00  8.932E-06  6.508E-02  3.046E+00  2.283E+00
  2.800E-02  7.996E-02  3.023E+00  6.173E-06  6.508E-02  3.190E+00  2.294E+00
  2.800E-02  8.838E-02  2.963E+00  4.279E-06  6.508E-02  3.312E+00  2.306E+00
  2.800E-02  9.679E-02  2.903E+00  2.977E-06  6.508E-02  3.395E+00  2.319E+00
  2.800E-02  1.052E-01  2.844E+00  2.097E-06  6.508E-02  3.422E+00  2.332E+00
  2.800E-02  1.136E-01  2.784E+00  1.462E-06  6.508E-02  3.385E+00  2.345E+00
  2.800E-02  1.220E-01  2.724E+00  1.004E-06  6.508E-02  3.292E+00  2.356E+00
  2.800E-02  1.305E-01  2.664E+00  7.096E-07  6.508E-02  3.155E+00  2.366E+00
  2.800E-02  1.389E-01  2.604E+00  5.127E-07  6.508E-02  2.990E+00  2.373E+00
  2.800E-02  1.473E-01  2.544E+00  3.594E-07  6.508E-02  2.813E+00  2.378E+00
  2.800E-02  1.557E-01  2.484E+00  2.465E-07  6.508E-02  2.633E+00  2.381E+00
  2.800E-02  1.641E-01  2.424E+00  1.724E-07  6.508E-02  2.458E+00  2.382E+00
  2.800E-02  1.725E-01  2.365E+00  1.082E-07  6.508E-02  2.292E+00  2.381E+00
  2.800E-02  1.810E-01  2.305E+00  6.428E-08  6.508E-02  2.138E+00  2.378E+00
  2.800E-02  1.894E-01  2.245E+00  4.823E-08  6.508E-02  1.997E+00  2.373E+00
  2.800E-02  1.978E-01  2.185E+00  3.771E-08  6.508E-02  1.870E+00  2.367E+00
  2.800E-02  2.062E-01  2.125E+00  2.912E-08  6.508E-02  1.755E+00  2.360E+00
  2.800E-02  2.146E-01  2.065E+00  2.061E-08  6.508E-02  1.652E+00  2.351E+00
  2.800E-02  2.230E-01  2.005E+00  1.326E-08  6.508E-02  1.561E+00  2.342E+00
  2.800E-02  2.315E-01  1.946E+00  7.321E-09  6.508E-02  1.480E+00  2.331E+00
  2.800E-02  2.399E-01  1.886E+00  4.870E-09  6.508E-02  1.409E+00  2.320E+00
  2.800E-02  2.483E-01  1.826E+00  3.555E-09  6.508E-02  1.346E+00  2.308E+00
  2.800E-02  2.567E-01  1.766E+00  2.571E-09  6.508E-02  1.291E+00  2.296E+00
  2.800E-02  2.651E-01  1.706E+00  1.706E-09  6.508E-02  1.243E+00  2.283E+00
  2.800E-02  2.735E-01  1.646E+00  1.111E-09  6.508E-02  1.201E+00  2.270E+00
  2.800E-02  2.820E-01  1.586E+00  7.404E-10  6.508E-02  1.165E+00  2.257E+00
  2.800E-02  2.904E-01  1.527E+00  5.288E-10  6.508E-02  1.132E+00  2.244E+00
  2.800E-02  2.988E-01  1.467E+00  4.106E-10  6.508E-02  1.104E+00  2.230E+00
  2.800E-02  3.072E-01  1.407E+00  3.007E-10  6.508E-02  1.080E+00  2.216E+00
  2.800E-02  3.156E-01  1.347E+00  2.179E-10  6.508E-02  1.058E+00  2.202E+00
  2.800E-02  3.240E-01  1.287E+00  1.519E-10  6.508E-02  1.039E+00  2.188E+00
  2.800E-02  3.325E-01  1.227E+00  1.052E-10  6.508E-02  1.022E+00  2.174E+00
  2.800E-02  3.409E-01  1.167E+00  7.358E-11  6.508E-02  1.007E+00  2.160E+00
  2.800E-02  3.493E-01  1.107E+00  5.379E-11  6.508E-02  9.933E-01  2.146E+00
  2.800E-02  3.577E-01  1.048E+00  5.015E-11  6.508E-02  9.811E-01  2.132E+00
  2.800E-02  3.661E-01  9.878E-01  5.158E-11  6.508E-02  9.701E-01  2.118E+00
  2.800E-02  3.745E-01  9.279E-01  3.456E-11  6.508E-02  9.600E-01  2.104E+00
  2.800E-02  3.830E-01  8.680E-01  1.427E-11  6.508E-02  9.509E-01  2.091E+00
  2.800E-02  3.914E-01  8.082E-01  1.624E-11  6.508E-02  9.426E-01  2.077E+00
  2.800E-02  3.998E-01  7.483E-01  2.315E-11  6.508E-02  9.350E-01  2.063E+00
  2.800E-02  4.082E-01  6.884E-01  2.277E-11  6.508E-02  9.282E-01  2.049E+00
  2.800E-02  4.166E-01  6.286E-01  1.664E-11  6.508E-02  9.221E-01  2.036E+00
  2.800E-02  4.250E-01  5.687E-01  7.636E-12  6.508E-02  9.168E-01  2.022E+00
  2.800E-02  4.335E-01  5.088E-01 -2.078E-11  6.508E-02  9.121E-01  2.009E+00
  2.800E-02  4.419E-01  4.490E-01  4.884E-12  6.508E-02  9.082E-01  1.996E+00
  2.800E-02  4.503E-01  3.891E-01  5.625E-11  6.508E-02  9.049E-01  1.983E+00
  2.800E-02  4.587E-01  3.293E-01  4.435E-11  6.508E-02  9.023E-01  1.970E+00
  2.800E-02  4.671E-01  2.694E-01  2.181E-11  6.508E-02  9.003E-01  1.957E+00
  2.800E-02  4.755E-01  2.095E-01  5.196E-11  6.508E-02  8.987E-01  1.944E+00
  2.800E-02  4.840E-01  1.497E-01 -9.573E-11  6.508E-02  8.977E-01  1.932E+00
  2.800E-02  4.924E-01  8.980E-02 -6.732E-11  6.508E-02  8.970E-01  1.919E+00
  2.800E-02  5.008E-01  2.993E-02 -1.890E-11  6.508E-02  8.966E-01  1.907E+00
  2.800E-02  5.050E-01  0.000E+00 -1.890E-11  6.508E-02  8.966E-01  1.907E+00
  3.600E-02  0.000E+00  3.592E+00  9.209E-05  6.500E-02  2.252E+00  2.250E+00
  3.600E-02  4.208E-03  3.562E+00  9.209E-05  6.502E-02  2.252E+00  2.250E+00
  3.600E-02  1.262E-02  3.502E+00  8.274E-05  6.504E-02  2.277E+00  2.250E+00
  3.600E-02  2.104E-02  3.442E+00  6.716E-05  6.506E-02  2.326E+00  2.251E+00
  3.600E-02  2.946E-02  3.382E+00  5.088E-05  6.507E-02  2.399E+00  2.253E+00
  3.600E-02  3.787E-02  3.322E+00  3.722E-05  6.508E-02  2.495E+00  2.256E+00
  3.600E-02  4.629E-02  3.263E+00  2.673E-05  6.508E-02  2.612E+00  2.260E+00
  3.600E-02  5.471E-02  3.203E+00  1.898E-05  6.508E-02  2.747E+00  2.266E+00
  3.600E-02  6.313E-02  3.143E+00  1.340E-05  6.508E-02  2.894E+00  2.274E+00
  3.600E-02  7.154E-02  3.083E+00  9.432E-06  6.508E-02  3.046E+00  2.283E+00
  3.600E-02  7.996E-02  3.023E+00  6.608E-06  6.508E-02  3.190E+00  2.294E+00
  3.600E-02  8.838E-02  2.963E+00  4.624E-06  6.508E-02  3.312E+00  2.306E+00
  3.600E-02  9.679E-02  2.903E+00  3.236E-06  6.508E-02  3.395E+00  2.319E+00
  3.600E-02  1.052E-01  2.844E+00  2.288E-06  6.508E-02  3.422E+00  2.332E+00
  3.600E-02  1.136E-01  2.784E+00  1.609E-06  6.508E-02  3.385E+00  2.345E+00
  3.600E-02  1.220E-01  2.724E+00  1.117E-06  6.508E-02  3.292E+00  2.356E+00
  3.600E-02  1.305E-01  2.664E+00  7.784E-07  6.508E-02  3.155E+00  2.366E+00
  3.600E-02  1.389E-01  2.604E+00  5.487E-07  6.508E-02  2.990E+00  2.373E+00
  3.600E-02  1.473E-01  2.544E+00  3.856E-07  6.508E-02  2.813E+00  2.378E+00
  3.600E-02  1.557E-01  2.484E+00  2.782E-07  6.508E-02  2.633E+00  2.381E+00
  3.600E-02  1.641E-01  2.424E+00  1.964E-07  6.508E-02  2.458E+00  2.382E+00
  3.600E-02  1.725E-01  2.365E+00  1.352E-07  6.508E-02  2.292E+00  2.381E+00
  3.600E-02  1.810E-01  2.305E+00  8.754E-08  6.508E-02  2.138E+00  2.378E+00
  3.600E-02  1.894E-01  2.245E+00  8.273E-08  6.508E-02  1.997E+00  2.373E+00
  3.600E-02  1.978E-01  2.185E+00  7.270E-08  6.508E-02  1.870E+00  2.367E+00
  3.600E-02  2.062E-01  2.125E+00  3.476E-08  6.508E-02  1.755E+00  2.360E+00
  3.600E-02  2.146E-01  2.065E+00  1.417E-08  6.508E-02  1.652E+00  2.351E+00
  3.600E-02  2.230E-01  2.005E+00  1.079E-08  6.508E-02  1.561E+00  2.342E+00
  3.600E-02  2.315E-01  1.946E+00  7.456E-09  6.508E-02  1.480E+00  2.331E+00
  3.600E-02  2.399E-01  1.886E+00  5.265E-09  6.508E-02  1.409E+00  2.320E+00
  3.600E-02  2.483E-01  1.826E+00  3.793E-09  6.508E-02  1.346E+00  2.308E+00
  3.600E-02  2.567E-01  1.766E+00  2.727E-09  6.508E-02  1.291E+00  2.296E+00
  3.600E-02  2.651E-01  1.706E+00  1.910E-09  6.508E-02  1.243E+00  2.283E+00
  3.600E-02  2.735E-01  1.646E+00  1.325E-09  6.508E-02  1.201E+00  2.270E+00
  3.600E-02  2.820E-01  1.586E+00  9.312E-10  6.508E-02  1.165E+00  2.257E+00
  3.600E-02  2.904E-01  1.527E+00  6.558E-10  6.508E-02  1.132E+00  2.244E+00
  3.600E-02  2.988E-01  1.467E+00  4.578E-10  6.508E-02  1.104E+00  2.230E+00
  3.600E-02  3.072E-01  1.407E+00  3.217E-10  6.508E-02  1.080E+00  2.216E+00
  3.600E-02  3.156E-01  1.347E+00  2.289E-10  6.508E-02  1.058E+00  2.202E+00
  3.600E-02  3.240E-01  1.287E+00  1.624E-10  6.508E-02  1.039E+00  2.188E+00
  3.600E-02  3.325E-01  1.227E+00  1.155E-10  6.508E-02  1.022E+00  2.174E+00
  3.600E-02  3.409E-01  1.167E+00  8.332E-11  6.508E-02  1.007E+00  2.160E+00
  3.600E-02  3.493E-01  1.107E+00  6.234E-11  6.508E-02  9.933E-01  2.146E+00
  3.600E-02  3.577E-01  1.048E+00  5.155E-11  6.508E-02  9.811E-01  2.132E+00
  3.600E-02  3.661E-01  9.878E-01  4.531E-11  6.508E-02  9.701E-01  2.118E+00
  3.600E-02  3.745E-01  9.279E-01  3.367E-11  6.508E-02  9.601E-01  2.104E+00
  3.600E-02  3.830E-01  8.680E-01  2.115E-11  6.508E-02  9.509E-01  2.091E+00
  3.600E-02  3.914E-01  8.082E-01  1.794E-11  6.508E-02  9.426E-01  2.077E+00
  3.600E-02  3.998E-01  7.483E-01  1.859E-11  6.508E-02  9.351E-01  2.063E+00
  3.600E-02  4.082E-01  6.884E-01  1.755E-11  6.508E-02  9.283E-01  2.049E+00
  3.600E-02  4.166E-01  6.286E-01  1.446E-11  6.508E-02  9.222E-01  2.036E+00
  3.600E-02  4.250E-01  5.687E-01  1.097E-11  6.508E-02  9.168E-01  2.022E+00
  3.600E-02  4.335E-01  5.088E-01  6.681E-12  6.508E-02  9.122E-01  2.009E+00
  3.600E-02  4.419E-01  4.490E-01  1.777E-11  6.508E-02  9.082E-01  1.996E+00
  3.600E-02  4.503E-01  3.891E-01  3.326E-11  6.508E-02  9.050E-01  1.983E+00
  3.600E-02  4.587E-01  3.293E-01  3.013E-11  6.508E-02  9.024E-01  1.970E+00
  3.600E-02  4.671E-01  2.694E-01  2.334E-11  6.508E-02  9.003E-01  1.957E+00
  3.600E-02  4.755E-01  2.095E-01  3.361E-11  6.508E-02  8.988E-01  1.944E+00
  3.600E-02  4.840E-01  1.497E-01  1.075E-11  6.508E-02  8.977E-01  1.932E+00
  3.600E-02  4.924E-01  8.980E-02  1.403E-11  6.508E-02  8.970E-01  1.919E+00
  3.600E-02  5.008E-01  2.993E-02  1.149E-11  6.508E-02  8.967E-01  1.908E+00
  3.600E-02  5.050E-01  0.000E+00  1.149E-11  6.508E-02  8.967E-01  1.908E+00
  4.400E-02  0.000E+00  3.592E+00  6.838E-05  6.500E-02  2.252E+00  2.250E+00
  4.400E-02  4.208E-03  3.562E+00  6.838E-05  6.502E-02  2.252E+00  2.250E+00
  4.400E-02  1.262E-02  3.502E+00  6.310E-05  6.503E-02  2.277E+00  2.251E+00
  4.400E-02  2.104E-02  3.442E+00  5.355E-05  6.505E-02  2.326E+00  2.251E+00
  4.400E-02  2.946E-02  3.382E+00  4.249E-05  6.506E-02  2.399E+00  2.253E+00
  4.400E-02  3.787E-02  3.322E+00  3.231E-05  6.507E-02  2.495E+00  2.256E+00
  4.400E-02  4.629E-02  3.263E+00  2.396E-05  6.507E-02  2.612E+00  2.260E+00
  4.400E-02  5.471E-02  3.203E+00  1.746E-05  6.508E-02  2.747E+00  2.266E+00
  4.400E-02  6.313E-02  3.143E+00  1.259E-05  6.508E-02  2.894E+00  2.274E+00
  4.400E-02  7.154E-02  3.083E+00  8.994E-06  6.508E-02  3.046E+00  2.283E+00
  4.400E-02  7.996E-02  3.023E+00  6.382E-06  6.508E-02  3.190E+00  2.294E+00