VARIABLES="XP","YP","P","U","V","TS","TF"
ZONE T="Zone 001"I=    82 J=    22 F=POINT
  0.000E+00  0.000E+00  1.019E+05  0.000E+00  0.000E+00  7.505E-01  7.505E-01
  0.000E+00  3.156E-03  1.019E+05  0.000E+00  0.000E+00  7.505E-01  7.505E-01
  0.000E+00  9.469E-03  1.019E+05  0.000E+00  0.000E+00  7.505E-01  7.505E-01
  0.000E+00  1.578E-02  1.019E+05  0.000E+00  0.000E+00  7.505E-01  7.505E-01
  0.000E+00  2.209E-02  1.019E+05  0.000E+00  0.000E+00  7.505E-01  7.505E-01
  0.000E+00  2.841E-02  1.019E+05  0.000E+00  0.000E+00  7.505E-01  7.505E-01
  0.000E+00  3.472E-02  1.019E+05  0.000E+00  0.000E+00  7.505E-01  7.505E-01
  0.000E+00  4.103E-02  1.019E+05  0.000E+00  0.000E+00  7.505E-01  7.505E-01
  0.000E+00  4.734E-02  1.019E+05  0.000E+00  0.000E+00  7.505E-01  7.505E-01
  0.000E+00  5.366E-02  1.019E+05  0.000E+00  0.000E+00  7.505E-01  7.505E-01
  0.000E+00  5.997E-02  1.018E+05  0.000E+00  0.000E+00  7.505E-01  7.505E-01
  0.000E+00  6.628E-02  1.018E+05  0.000E+00  0.000E+00  7.505E-01  7.505E-01
  0.000E+00  7.259E-02  1.018E+05  0.000E+00  0.000E+00  7.505E-01  7.505E-01
  0.000E+00  7.891E-02  1.018E+05  0.000E+00  0.000E+00  7.505E-01  7.505E-01
  0.000E+00  8.522E-02  1.018E+05  0.000E+00  0.000E+00  7.505E-01  7.505E-01
  0.000E+00  9.153E-02  1.018E+05  0.000E+00  0.000E+00  7.505E-01  7.505E-01
  0.000E+00  9.784E-02  1.018E+05  0.000E+00  0.000E+00  7.505E-01  7.505E-01
  0.000E+00  1.042E-01  1.018E+05  0.000E+00  0.000E+00  7.505E-01  7.505E-01
  0.000E+00  1.105E-01  1.018E+05  0.000E+00  0.000E+00  7.505E-01  7.505E-01
  0.000E+00  1.168E-01  1.018E+05  0.000E+00  0.000E+00  7.505E-01  7.505E-01
  0.000E+00  1.231E-01  1.018E+05  0.000E+00  0.000E+00  7.505E-01  7.505E-01
  0.000E+00  1.294E-01  1.018E+05  0.000E+00  0.000E+00  7.505E-01  7.505E-01
  0.000E+00  1.357E-01  1.018E+05  0.000E+00  0.000E+00  7.505E-01  7.505E-01
  0.000E+00  1.420E-01  1.017E+05  0.000E+00  0.000E+00  7.505E-01  7.505E-01
  0.000E+00  1.483E-01  1.017E+05  0.000E+00  0.000E+00  7.505E-01  7.505E-01
  0.000E+00  1.547E-01  1.017E+05  0.000E+00  0.000E+00  7.505E-01  7.505E-01
  0.000E+00  1.610E-01  1.017E+05  0.000E+00  0.000E+00  7.505E-01  7.505E-01
  0.000E+00  1.673E-01  1.017E+05  0.000E+00  0.000E+00  7.505E-01  7.505E-01
  0.000E+00  1.736E-01  1.017E+05  0.000E+00  0.000E+00  7.505E-01  7.505E-01
  0.000E+00  1.799E-01  1.017E+05  0.000E+00  0.000E+00  7.505E-01  7.505E-01
  0.000E+00  1.862E-01  1.017E+05  0.000E+00  0.000E+00  7.505E-01  7.505E-01
  0.000E+00  1.925E-01  1.017E+05  0.000E+00  0.000E+00  7.505E-01  7.505E-01
  0.000E+00  1.988E-01  1.017E+05  0.000E+00  0.000E+00  7.505E-01  7.505E-01
  0.000E+00  2.052E-01  1.017E+05  0.000E+00  0.000E+00  7.506E-01  7.506E-01
  0.000E+00  2.115E-01  1.017E+05  0.000E+00  0.000E+00  7.506E-01  7.506E-01
  0.000E+00  2.178E-01  1.017E+05  0.000E+00  0.000E+00  7.506E-01  7.506E-01
  0.000E+00  2.241E-01  1.017E+05  0.000E+00  0.000E+00  7.506E-01  7.506E-01
  0.000E+00  2.304E-01  1.016E+05  0.000E+00  0.000E+00  7.507E-01  7.507E-01
  0.000E+00  2.367E-01  1.016E+05  0.000E+00  0.000E+00  7.508E-01  7.508E-01
  0.000E+00  2.430E-01  1.016E+05  0.000E+00  0.000E+00  7.509E-01  7.509E-01
  0.000E+00  2.493E-01  1.016E+05  0.000E+00  0.000E+00  7.510E-01  7.510E-01
  0.000E+00  2.557E-01  1.016E+05  0.000E+00  0.000E+00  7.512E-01  7.512E-01
  0.000E+00  2.620E-01  1.016E+05  0.000E+00  0.000E+00  7.514E-01  7.514E-01
  0.000E+00  2.683E-01  1.016E+05  0.000E+00  0.000E+00  7.518E-01  7.517E-01
  0.000E+00  2.746E-01  1.016E+05  0.000E+00  0.000E+00  7.522E-01  7.521E-01
  0.000E+00  2.809E-01  1.016E+05  0.000E+00  0.000E+00  7.527E-01  7.527E-01
  0.000E+00  2.872E-01  1.016E+05  0.000E+00  0.000E+00  7.534E-01  7.534E-01
  0.000E+00  2.935E-01  1.016E+05  0.000E+00  0.000E+00  7.543E-01  7.542E-01
  0.000E+00  2.998E-01  1.016E+05  0.000E+00  0.000E+00  7.554E-01  7.553E-01
  0.000E+00  3.062E-01  1.016E+05  0.000E+00  0.000E+00  7.568E-01  7.567E-01
  0.000E+00  3.125E-01  1.015E+05  0.000E+00  0.000E+00  7.585E-01  7.584E-01
  0.000E+00  3.188E-01  1.015E+05  0.000E+00  0.000E+00  7.607E-01  7.606E-01
  0.000E+00  3.251E-01  1.015E+05  0.000E+00  0.000E+00  7.634E-01  7.632E-01
  0.000E+00  3.314E-01  1.015E+05  0.000E+00  0.000E+00  7.666E-01  7.665E-01
  0.000E+00  3.377E-01  1.015E+05  0.000E+00  0.000E+00  7.706E-01  7.704E-01
  0.000E+00  3.440E-01  1.015E+05  0.000E+00  0.000E+00  7.755E-01  7.752E-01
  0.000E+00  3.503E-01  1.015E+05  0.000E+00  0.000E+00  7.813E-01  7.810E-01
  0.000E+00  3.567E-01  1.015E+05  0.000E+00  0.000E+00  7.882E-01  7.879E-01
  0.000E+00  3.630E-01  1.015E+05  0.000E+00  0.000E+00  7.965E-01  7.961E-01
  0.000E+00  3.693E-01  1.015E+05  0.000E+00  0.000E+00  8.062E-01  8.057E-01
  0.000E+00  3.756E-01  1.015E+05  0.000E+00  0.000E+00  8.175E-01  8.170E-01
  0.000E+00  3.819E-01  1.015E+05  0.000E+00  0.000E+00  8.307E-01  8.301E-01
  0.000E+00  3.882E-01  1.015E+05  0.000E+00  0.000E+00  8.460E-01  8.453E-01
  0.000E+00  3.945E-01  1.015E+05  0.000E+00  0.000E+00  8.635E-01  8.627E-01
  0.000E+00  4.008E-01  1.014E+05  0.000E+00  0.000E+00  8.835E-01  8.826E-01
  0.000E+00  4.072E-01  1.014E+05  0.000E+00  0.000E+00  9.061E-01  9.050E-01
  0.000E+00  4.135E-01  1.014E+05  0.000E+00  0.000E+00  9.315E-01  9.303E-01
  0.000E+00  4.198E-01  1.014E+05  0.000E+00  0.000E+00  9.598E-01  9.585E-01
  0.000E+00  4.261E-01  1.014E+05  0.000E+00  0.000E+00  9.913E-01  9.898E-01
  0.000E+00  4.324E-01  1.014E+05  0.000E+00  0.000E+00  1.026E+00  1.024E+00
  0.000E+00  4.387E-01  1.014E+05  0.000E+00  0.000E+00  1.064E+00  1.062E+00
  0.000E+00  4.450E-01  1.014E+05  0.000E+00  0.000E+00  1.105E+00  1.103E+00
  0.000E+00  4.513E-01  1.014E+05  0.000E+00  0.000E+00  1.150E+00  1.147E+00
  0.000E+00  4.577E-01  1.014E+05  0.000E+00  0.000E+00  1.197E+00  1.195E+00
  0.000E+00  4.640E-01  1.014E+05  0.000E+00  0.000E+00  1.248E+00  1.245E+00
  0.000E+00  4.703E-01  1.014E+05  0.000E+00  0.000E+00  1.301E+00  1.298E+00
  0.000E+00  4.766E-01  1.014E+05  0.000E+00  0.000E+00  1.356E+00  1.354E+00
  0.000E+00  4.829E-01  1.014E+05  0.000E+00  0.000E+00  1.413E+00  1.410E+00
  0.000E+00  4.892E-01  1.013E+05  0.000E+00  0.000E+00  1.470E+00  1.467E+00
  0.000E+00  4.955E-01  1.013E+05  0.000E+00  0.000E+00  1.522E+00  1.519E+00
  0.000E+00  5.018E-01  1.013E+05  0.000E+00  0.000E+00  1.560E+00  1.558E+00
  0.000E+00  5.050E-01  1.013E+05  0.000E+00  0.000E+00  1.560E+00  1.558E+00
  4.000E-03  0.000E+00  1.019E+05  8.159E-07  6.500E-02  7.505E-01  7.505E-01
  4.000E-03  3.156E-03  1.019E+05  8.159E-07  6.498E-02  7.505E-01  7.505E-01
  4.000E-03  9.469E-03  1.019E+05  3.451E-07  6.499E-02  7.505E-01  7.505E-01
  4.000E-03  1.578E-02  1.019E+05  2.431E-07  6.500E-02  7.505E-01  7.505E-01
  4.000E-03  2.209E-02  1.019E+05  2.385E-07  6.499E-02  7.505E-01  7.505E-01
  4.000E-03  2.841E-02  1.019E+05  7.592E-07  6.499E-02  7.505E-01  7.505E-01
  4.000E-03  3.472E-02  1.019E+05  1.433E-06  6.500E-02  7.505E-01  7.505E-01
  4.000E-03  4.103E-02  1.019E+05  7.270E-07  6.500E-02  7.505E-01  7.505E-01
  4.000E-03  4.734E-02  1.019E+05  1.560E-07  6.500E-02  7.505E-01  7.505E-01
  4.000E-03  5.366E-02  1.019E+05  7.211E-08  6.499E-02  7.505E-01  7.505E-01
  4.000E-03  5.997E-02  1.018E+05  1.917E-08  6.499E-02  7.505E-01  7.505E-01
  4.000E-03  6.628E-02  1.018E+05  6.982E-09  6.499E-02  7.505E-01  7.505E-01
  4.000E-03  7.259E-02  1.018E+05  2.514E-09  6.499E-02  7.505E-01  7.505E-01
  4.000E-03  7.891E-02  1.018E+05  1.418E-09  6.499E-02  7.505E-01  7.505E-01
  4.000E-03  8.522E-02  1.018E+05  1.084E-09  6.499E-02  7.505E-01  7.505E-01
  4.000E-03  9.153E-02  1.018E+05  9.356E-10  6.500E-02  7.505E-01  7.505E-01
  4.000E-03  9.784E-02  1.018E+05  8.274E-10  6.500E-02  7.505E-01  7.505E-01
  4.000E-03  1.042E-01  1.018E+05  7.198E-10  6.500E-02  7.505E-01  7.505E-01
  4.000E-03  1.105E-01  1.018E+05  5.952E-10  6.499E-02  7.505E-01  7.505E-01
  4.000E-03  1.168E-01  1.018E+05  4.932E-10  6.499E-02  7.505E-01  7.505E-01
  4.000E-03  1.231E-01  1.018E+05  3.826E-10  6.499E-02  7.505E-01  7.505E-01
  4.000E-03  1.294E-01  1.018E+05  3.216E-10  6.499E-02  7.505E-01  7.505E-01
  4.000E-03  1.357E-01  1.018E+05  3.237E-10  6.499E-02  7.505E-01  7.505E-01
  4.000E-03  1.420E-01  1.017E+05  2.783E-10  6.499E-02  7.505E-01  7.505E-01
  4.000E-03  1.483E-01  1.017E+05  2.050E-10  6.499E-02  7.505E-01  7.505E-01
  4.000E-03  1.547E-01  1.017E+05  1.549E-10  6.499E-02  7.505E-01  7.505E-01
  4.000E-03  1.610E-01  1.017E+05  1.205E-10  6.500E-02  7.505E-01  7.505E-01
  4.000E-03  1.673E-01  1.017E+05  7.142E-11  6.500E-02  7.505E-01  7.505E-01
  4.000E-03  1.736E-01  1.017E+05  2.532E-11  6.500E-02  7.505E-01  7.505E-01
  4.000E-03  1.799E-01  1.017E+05 -9.751E-12  6.499E-02  7.505E-01  7.505E-01
  4.000E-03  1.862E-01  1.017E+05  1.627E-11  6.499E-02  7.505E-01  7.505E-01
  4.000E-03  1.925E-01  1.017E+05  5.057E-11  6.499E-02  7.505E-01  7.505E-01
  4.000E-03  1.988E-01  1.017E+05  3.445E-11  6.499E-02  7.505E-01  7.505E-01
  4.000E-03  2.052E-01  1.017E+05  3.403E-11  6.499E-02  7.506E-01  7.506E-01
  4.000E-03  2.115E-01  1.017E+05  2.695E-11  6.499E-02  7.506E-01  7.506E-01
  4.000E-03  2.178E-01  1.017E+05  1.831E-11  6.499E-02  7.506E-01  7.506E-01
  4.000E-03  2.241E-01  1.017E+05  9.428E-12  6.499E-02  7.506E-01  7.506E-01
  4.000E-03  2.304E-01  1.016E+05 -1.205E-11  6.500E-02  7.507E-01  7.507E-01
  4.000E-03  2.367E-01  1.016E+05 -2.518E-11  6.500E-02  7.508E-01  7.508E-01
  4.000E-03  2.430E-01  1.016E+05  7.608E-12  6.500E-02  7.509E-01  7.509E-01
  4.000E-03  2.493E-01  1.016E+05 -8.133E-12  6.499E-02  7.510E-01  7.510E-01
  4.000E-03  2.557E-01  1.016E+05 -5.113E-12  6.499E-02  7.512E-01  7.512E-01
  4.000E-03  2.620E-01  1.016E+05  2.174E-11  6.499E-02  7.514E-01  7.514E-01
  4.000E-03  2.683E-01  1.016E+05  5.678E-12  6.499E-02  7.518E-01  7.517E-01
  4.000E-03  2.746E-01  1.016E+05  1.482E-11  6.499E-02  7.522E-01  7.521E-01
  4.000E-03  2.809E-01  1.016E+05  2.281E-11  6.499E-02  7.527E-01  7.527E-01
  4.000E-03  2.872E-01  1.016E+05  2.283E-11  6.500E-02  7.534E-01  7.534E-01
  4.000E-03  2.935E-01  1.016E+05 -2.898E-11  6.500E-02  7.543E-01  7.542E-01
  4.000E-03  2.998E-01  1.016E+05 -3.053E-11  6.500E-02  7.554E-01  7.553E-01
  4.000E-03  3.062E-01  1.016E+05 -1.716E-11  6.499E-02  7.568E-01  7.567E-01
  4.000E-03  3.125E-01  1.015E+05  2.746E-12  6.499E-02  7.585E-01  7.584E-01
  4.000E-03  3.188E-01  1.015E+05  3.506E-11  6.499E-02  7.607E-01  7.606E-01
  4.000E-03  3.251E-01  1.015E+05  8.724E-12  6.499E-02  7.634E-01  7.632E-01
  4.000E-03  3.314E-01  1.015E+05  3.281E-12  6.499E-02  7.666E-01  7.665E-01
  4.000E-03  3.377E-01  1.015E+05 -2.689E-14  6.499E-02  7.706E-01  7.704E-01
  4.000E-03  3.440E-01  1.015E+05  3.467E-12  6.499E-02  7.755E-01  7.752E-01
  4.000E-03  3.503E-01  1.015E+05  9.752E-12  6.499E-02  7.813E-01  7.810E-01
  4.000E-03  3.567E-01  1.015E+05  1.508E-11  6.500E-02  7.882E-01  7.879E-01
  4.000E-03  3.630E-01  1.015E+05 -2.694E-11  6.500E-02  7.965E-01  7.961E-01
  4.000E-03  3.693E-01  1.015E+05 -2.869E-11  6.500E-02  8.062E-01  8.057E-01
  4.000E-03  3.756E-01  1.015E+05 -2.177E-11  6.499E-02  8.175E-01  8.170E-01
  4.000E-03  3.819E-01  1.015E+05 -2.530E-12  6.499E-02  8.307E-01  8.301E-01
  4.000E-03  3.882E-01  1.015E+05  3.376E-11  6.499E-02  8.460E-01  8.453E-01
  4.000E-03  3.945E-01  1.015E+05  1.394E-11  6.499E-02  8.635E-01  8.627E-01
  4.000E-03  4.008E-01  1.014E+05  8.444E-12  6.499E-02  8.835E-01  8.826E-01
  4.000E-03  4.072E-01  1.014E+05 -2.887E-12  6.499E-02  9.061E-01  9.050E-01
  4.000E-03  4.135E-01  1.014E+05 -9.667E-12  6.499E-02  9.315E-01  9.303E-01
  4.000E-03  4.198E-01  1.014E+05 -8.010E-12  6.499E-02  9.598E-01  9.585E-01
  4.000E-03  4.261E-01  1.014E+05 -1.511E-11  6.500E-02  9.913E-01  9.898E-01
  4.000E-03  4.324E-01  1.014E+05  1.227E-12  6.500E-02  1.026E+00  1.024E+00
  4.000E-03  4.387E-01  1.014E+05  1.396E-11  6.500E-02  1.064E+00  1.062E+00
  4.000E-03  4.450E-01  1.014E+05 -2.755E-11  6.499E-02  1.105E+00  1.103E+00
  4.000E-03  4.513E-01  1.014E+05 -9.303E-12  6.499E-02  1.150E+00  1.147E+00
  4.000E-03  4.577E-01  1.014E+05  1.573E-11  6.499E-02  1.197E+00  1.195E+00
  4.000E-03  4.640E-01  1.014E+05 -2.465E-12  6.499E-02  1.248E+00  1.245E+00
  4.000E-03  4.703E-01  1.014E+05  6.286E-12  6.499E-02  1.301E+00  1.298E+00
  4.000E-03  4.766E-01  1.014E+05  1.108E-11  6.499E-02  1.356E+00  1.354E+00
  4.000E-03  4.829E-01  1.014E+05  8.678E-12  6.499E-02  1.413E+00  1.410E+00
  4.000E-03  4.892E-01  1.013E+05 -1.002E-11  6.499E-02  1.470E+00  1.467E+00
  4.000E-03  4.955E-01  1.013E+05 -4.074E-11  6.499E-02  1.522E+00  1.519E+00
  4.000E-03  5.018E-01  1.013E+05 -5.679E-11  6.500E-02  1.560E+00  1.558E+00
  4.000E-03  5.050E-01  1.013E+05 -5.679E-11  6.500E-02  1.560E+00  1.558E+00
  1.200E-02  0.000E+00  1.019E+05  1.109E-06  6.500E-02  7.500E-01  7.500E-01
  1.200E-02  3.156E-03  1.019E+05  1.109E-06  6.498E-02  7.500E-01  7.500E-01
  1.200E-02  9.469E-03  1.019E+05  4.972E-07  6.500E-02  7.500E-01  7.500E-01
  1.200E-02  1.578E-02  1.019E+05  2.964E-07  6.500E-02  7.500E-01  7.500E-01
  1.200E-02  2.209E-02  1.019E+05 -4.992E-07  6.500E-02  7.500E-01  7.500E-01
  1.200E-02  2.841E-02  1.019E+05  2.598E-06  6.500E-02  7.500E-01  7.500E-01
  1.200E-02  3.472E-02  1.019E+05  8.146E-06  6.500E-02  7.500E-01  7.500E-01
  1.200E-02  4.103E-02  1.019E+05  2.552E-06  6.501E-02  7.500E-01  7.500E-01
  1.200E-02  4.734E-02  1.019E+05 -6.636E-07  6.500E-02  7.500E-01  7.500E-01
  1.200E-02  5.366E-02  1.019E+05 -2.332E-08  6.500E-02  7.500E-01  7.500E-01
  1.200E-02  5.997E-02  1.018E+05 -4.739E-08  6.500E-02  7.500E-01  7.500E-01
  1.200E-02  6.628E-02  1.018E+05 -1.261E-08  6.500E-02  7.500E-01  7.500E-01
  1.200E-02  7.259E-02  1.018E+05 -4.136E-09  6.500E-02  7.500E-01  7.500E-01
  1.200E-02  7.891E-02  1.018E+05  4.654E-10  6.500E-02  7.500E-01  7.500E-01
  1.200E-02  8.522E-02  1.018E+05  2.095E-09  6.500E-02  7.500E-01  7.500E-01
  1.200E-02  9.153E-02  1.018E+05  2.519E-09  6.500E-02  7.500E-01  7.500E-01
  1.200E-02  9.784E-02  1.018E+05  2.444E-09  6.501E-02  7.500E-01  7.500E-01
  1.200E-02  1.042E-01  1.018E+05  2.203E-09  6.500E-02  7.500E-01  7.500E-01
  1.200E-02  1.105E-01  1.018E+05  1.893E-09  6.500E-02  7.500E-01  7.500E-01
  1.200E-02  1.168E-01  1.018E+05  1.607E-09  6.500E-02  7.500E-01  7.500E-01
  1.200E-02  1.231E-01  1.018E+05  1.321E-09  6.500E-02  7.500E-01  7.500E-01
  1.200E-02  1.294E-01  1.018E+05  1.113E-09  6.500E-02  7.500E-01  7.500E-01
  1.200E-02  1.357E-01  1.018E+05  9.061E-10  6.500E-02  7.500E-01  7.500E-01
  1.200E-02  1.420E-01  1.017E+05  6.528E-10  6.500E-02  7.500E-01  7.500E-01
  1.200E-02  1.483E-01  1.017E+05  4.392E-10  6.500E-02  7.500E-01  7.500E-01
  1.200E-02  1.547E-01  1.017E+05  2.862E-10  6.500E-02  7.500E-01  7.500E-01
  1.200E-02  1.610E-01  1.017E+05  1.965E-10  6.500E-02  7.500E-01  7.500E-01
  1.200E-02  1.673E-01  1.017E+05  1.291E-10  6.501E-02  7.500E-01  7.500E-01
  1.200E-02  1.736E-01  1.017E+05  9.970E-11  6.500E-02  7.500E-01  7.500E-01
  1.200E-02  1.799E-01  1.017E+05  1.055E-10  6.500E-02  7.500E-01  7.500E-01
  1.200E-02  1.862E-01  1.017E+05  1.716E-10  6.500E-02  7.500E-01  7.500E-01
  1.200E-02  1.925E-01  1.017E+05  2.045E-10  6.500E-02  7.500E-01  7.500E-01
  1.200E-02  1.988E-01  1.017E+05  1.547E-10  6.500E-02  7.500E-01  7.500E-01
  1.200E-02  2.052E-01  1.017E+05  1.073E-10  6.500E-02  7.500E-01  7.500E-01
  1.200E-02  2.115E-01  1.017E+05  6.936E-11  6.500E-02  7.500E-01  7.500E-01
  1.200E-02  2.178E-01  1.017E+05  3.946E-11  6.500E-02  7.501E-01  7.501E-01
  1.200E-02  2.241E-01  1.017E+05  1.361E-11  6.500E-02  7.501E-01  7.501E-01
  1.200E-02  2.304E-01  1.016E+05 -4.160E-11  6.500E-02  7.502E-01  7.502E-01
  1.200E-02  2.367E-01  1.016E+05 -9.518E-11  6.501E-02  7.502E-01  7.502E-01
  1.200E-02  2.430E-01  1.016E+05 -7.752E-11  6.500E-02  7.503E-01  7.503E-01
  1.200E-02  2.493E-01  1.016E+05 -6.965E-11  6.500E-02  7.505E-01  7.505E-01
  1.200E-02  2.557E-01  1.016E+05 -4.371E-12  6.500E-02  7.507E-01  7.507E-01
  1.200E-02  2.620E-01  1.016E+05  8.176E-11  6.500E-02  7.509E-01  7.509E-01
  1.200E-02  2.683E-01  1.016E+05  9.504E-11  6.500E-02  7.512E-01  7.512E-01
  1.200E-02  2.746E-01  1.016E+05  8.750E-11  6.500E-02  7.516E-01  7.516E-01
  1.200E-02  2.809E-01  1.016E+05  5.614E-11  6.500E-02  7.522E-01  7.521E-01
  1.200E-02  2.872E-01  1.016E+05  1.411E-11  6.500E-02  7.528E-01  7.528E-01
  1.200E-02  2.935E-01  1.016E+05 -6.794E-11  6.501E-02  7.537E-01  7.537E-01
  1.200E-02  2.998E-01  1.016E+05 -7.362E-11  6.500E-02  7.548E-01  7.548E-01
  1.200E-02  3.062E-01  1.016E+05 -5.479E-11  6.500E-02  7.562E-01  7.562E-01
  1.200E-02  3.125E-01  1.015E+05 -3.028E-11  6.500E-02  7.580E-01  7.579E-01
  1.200E-02  3.188E-01  1.015E+05  9.589E-12  6.500E-02  7.601E-01  7.600E-01
  1.200E-02  3.251E-01  1.015E+05  7.297E-12  6.500E-02  7.628E-01  7.627E-01
  1.200E-02  3.314E-01  1.015E+05  2.712E-11  6.500E-02  7.661E-01  7.659E-01
  1.200E-02  3.377E-01  1.015E+05  4.396E-11  6.500E-02  7.701E-01  7.699E-01
  1.200E-02  3.440E-01  1.015E+05  4.833E-11  6.500E-02  7.749E-01  7.747E-01
  1.200E-02  3.503E-01  1.015E+05  4.416E-11  6.500E-02  7.808E-01  7.805E-01
  1.200E-02  3.567E-01  1.015E+05  2.426E-11  6.500E-02  7.877E-01  7.874E-01
  1.200E-02  3.630E-01  1.015E+05 -4.866E-11  6.501E-02  7.959E-01  7.956E-01
  1.200E-02  3.693E-01  1.015E+05 -6.131E-11  6.500E-02  8.056E-01  8.052E-01
  1.200E-02  3.756E-01  1.015E+05 -4.566E-11  6.500E-02  8.170E-01  8.165E-01
  1.200E-02  3.819E-01  1.015E+05 -1.479E-11  6.500E-02  8.302E-01  8.296E-01
  1.200E-02  3.882E-01  1.015E+05  1.634E-11  6.500E-02  8.455E-01  8.448E-01
  1.200E-02  3.945E-01  1.015E+05 -9.145E-12  6.500E-02  8.630E-01  8.622E-01
  1.200E-02  4.008E-01  1.014E+05 -6.151E-12  6.500E-02  8.830E-01  8.820E-01
  1.200E-02  4.072E-01  1.014E+05  1.815E-11  6.500E-02  9.056E-01  9.045E-01
  1.200E-02  4.135E-01  1.014E+05  4.802E-11  6.500E-02  9.310E-01  9.298E-01
  1.200E-02  4.198E-01  1.014E+05  6.695E-11  6.500E-02  9.593E-01  9.580E-01
  1.200E-02  4.261E-01  1.014E+05  3.013E-11  6.500E-02  9.908E-01  9.894E-01
  1.200E-02  4.324E-01  1.014E+05 -1.455E-11  6.501E-02  1.025E+00  1.024E+00
  1.200E-02  4.387E-01  1.014E+05 -5.536E-11  6.500E-02  1.063E+00  1.062E+00
  1.200E-02  4.450E-01  1.014E+05 -1.081E-10  6.500E-02  1.105E+00  1.103E+00
  1.200E-02  4.513E-01  1.014E+05 -4.314E-11  6.500E-02  1.149E+00  1.147E+00
  1.200E-02  4.577E-01  1.014E+05  3.958E-11  6.500E-02  1.197E+00  1.194E+00
  1.200E-02  4.640E-01  1.014E+05  5.769E-11  6.500E-02  1.247E+00  1.245E+00
  1.200E-02  4.703E-01  1.014E+05  5.521E-11  6.500E-02  1.300E+00  1.298E+00
  1.200E-02  4.766E-01  1.014E+05  1.683E-11  6.500E-02  1.356E+00  1.353E+00
  1.200E-02  4.829E-01  1.014E+05 -3.811E-11  6.500E-02  1.413E+00  1.410E+00
  1.200E-02  4.892E-01  1.013E+05 -8.420E-11  6.500E-02  1.469E+00  1.467E+00
  1.200E-02  4.955E-01  1.013E+05 -1.119E-10  6.500E-02  1.522E+00  1.519E+00
  1.200E-02  5.018E-01  1.013E+05 -1.244E-10  6.500E-02  1.560E+00  1.558E+00
  1.200E-02  5.050E-01  1.013E+05 -1.244E-10  6.500E-02  1.560E+00  1.558E+00
  2.000E-02  0.000E+00  1.019E+05  5.386E-07  6.500E-02  7.489E-01  7.489E-01
  2.000E-02  3.156E-03  1.019E+05  5.386E-07  6.498E-02  7.489E-01  7.489E-01
  2.000E-02  9.469E-03  1.019E+05  3.616E-07  6.500E-02  7.489E-01  7.489E-01
  2.000E-02  1.578E-02  1.019E+05  2.741E-07  6.500E-02  7.489E-01  7.489E-01
  2.000E-02  2.209E-02  1.019E+05 -4.735E-07  6.500E-02  7.489E-01  7.489E-01
  2.000E-02  2.841E-02  1.019E+05  2.660E-06  6.501E-02  7.489E-01  7.489E-01
  2.000E-02  3.472E-02  1.019E+05  8.158E-06  6.500E-02  7.489E-01  7.489E-01
  2.000E-02  4.103E-02  1.019E+05  2.610E-06  6.500E-02  7.489E-01  7.489E-01
  2.000E-02  4.734E-02  1.019E+05 -6.335E-07  6.500E-02  7.489E-01  7.489E-01
  2.000E-02  5.366E-02  1.019E+05 -5.735E-11  6.500E-02  7.489E-01  7.489E-01
  2.000E-02  5.997E-02  1.018E+05 -3.266E-08  6.500E-02  7.489E-01  7.489E-01
  2.000E-02  6.628E-02  1.018E+05 -2.594E-09  6.500E-02  7.489E-01  7.489E-01
  2.000E-02  7.259E-02  1.018E+05  2.691E-09  6.500E-02  7.489E-01  7.489E-01
  2.000E-02  7.891E-02  1.018E+05  5.297E-09  6.500E-02  7.489E-01  7.489E-01
  2.000E-02  8.522E-02  1.018E+05  5.628E-09  6.500E-02  7.489E-01  7.489E-01
  2.000E-02  9.153E-02  1.018E+05  5.199E-09  6.500E-02  7.489E-01  7.489E-01
  2.000E-02  9.784E-02  1.018E+05  4.469E-09  6.501E-02  7.489E-01  7.489E-01
  2.000E-02  1.042E-01  1.018E+05  3.723E-09  6.500E-02  7.489E-01  7.489E-01
  2.000E-02  1.105E-01  1.018E+05  3.096E-09  6.500E-02  7.489E-01  7.489E-01
  2.000E-02  1.168E-01  1.018E+05  2.541E-09  6.500E-02  7.489E-01  7.489E-01
  2.000E-02  1.231E-01  1.018E+05  2.074E-09  6.500E-02  7.489E-01  7.489E-01
  2.000E-02  1.294E-01  1.018E+05  1.645E-09  6.500E-02  7.489E-01  7.489E-01
  2.000E-02  1.357E-01  1.018E+05  1.218E-09  6.500E-02  7.489E-01  7.489E-01
  2.000E-02  1.420E-01  1.017E+05  8.943E-10  6.500E-02  7.489E-01  7.489E-01
  2.000E-02  1.483E-01  1.017E+05  6.498E-10  6.500E-02  7.489E-01  7.489E-01
  2.000E-02  1.547E-01  1.017E+05  4.649E-10  6.500E-02  7.489E-01  7.489E-01
  2.000E-02  1.610E-01  1.017E+05  3.537E-10  6.500E-02  7.489E-01  7.489E-01
  2.000E-02  1.673E-01  1.017E+05  3.032E-10  6.501E-02  7.489E-01  7.489E-01
  2.000E-02  1.736E-01  1.017E+05  2.871E-10  6.500E-02  7.489E-01  7.489E-01
  2.000E-02  1.799E-01  1.017E+05  2.764E-10  6.500E-02  7.489E-01  7.489E-01
  2.000E-02  1.862E-01  1.017E+05  2.645E-10  6.500E-02  7.489E-01  7.489E-01
  2.000E-02  1.925E-01  1.017E+05  2.299E-10  6.500E-02  7.489E-01  7.489E-01
  2.000E-02  1.988E-01  1.017E+05  1.826E-10  6.500E-02  7.489E-01  7.489E-01
  2.000E-02  2.052E-01  1.017E+05  1.315E-10  6.500E-02  7.489E-01  7.489E-01
  2.000E-02  2.115E-01  1.017E+05  8.791E-11  6.500E-02  7.490E-01  7.490E-01
  2.000E-02  2.178E-01  1.017E+05  4.070E-11  6.500E-02  7.490E-01  7.490E-01
  2.000E-02  2.241E-01  1.017E+05 -1.712E-12  6.500E-02  7.490E-01  7.490E-01
  2.000E-02  2.304E-01  1.016E+05 -4.847E-11  6.500E-02  7.491E-01  7.491E-01
  2.000E-02  2.367E-01  1.016E+05 -7.407E-11  6.501E-02  7.492E-01  7.492E-01
  2.000E-02  2.430E-01  1.016E+05 -5.684E-11  6.500E-02  7.493E-01  7.493E-01
  2.000E-02  2.493E-01  1.016E+05 -1.442E-11  6.500E-02  7.494E-01  7.494E-01
  2.000E-02  2.557E-01  1.016E+05  4.546E-11  6.500E-02  7.496E-01  7.496E-01
  2.000E-02  2.620E-01  1.016E+05  8.376E-11  6.500E-02  7.498E-01  7.498E-01
  2.000E-02  2.683E-01  1.016E+05  8.303E-11  6.500E-02  7.501E-01  7.501E-01
  2.000E-02  2.746E-01  1.016E+05  4.957E-11  6.500E-02  7.506E-01  7.505E-01
  2.000E-02  2.809E-01  1.016E+05  1.239E-11  6.500E-02  7.511E-01  7.511E-01
  2.000E-02  2.872E-01  1.016E+05 -2.201E-11  6.500E-02  7.518E-01  7.517E-01
  2.000E-02  2.935E-01  1.016E+05 -4.893E-11  6.501E-02  7.526E-01  7.526E-01
  2.000E-02  2.998E-01  1.016E+05 -5.375E-11  6.500E-02  7.538E-01  7.537E-01
  2.000E-02  3.062E-01  1.016E+05 -4.730E-11  6.500E-02  7.552E-01  7.551E-01
  2.000E-02  3.125E-01  1.015E+05 -2.757E-11  6.500E-02  7.569E-01  7.568E-01
  2.000E-02  3.188E-01  1.015E+05 -1.365E-12  6.500E-02  7.591E-01  7.590E-01
  2.000E-02  3.251E-01  1.015E+05  2.625E-11  6.500E-02  7.617E-01  7.616E-01
  2.000E-02  3.314E-01  1.015E+05  4.358E-11  6.500E-02  7.650E-01  7.649E-01
  2.000E-02  3.377E-01  1.015E+05  4.861E-11  6.500E-02  7.690E-01  7.688E-01
  2.000E-02  3.440E-01  1.015E+05  3.250E-11  6.500E-02  7.739E-01  7.737E-01
  2.000E-02  3.503E-01  1.015E+05  1.315E-11  6.500E-02  7.797E-01  7.794E-01
  2.000E-02  3.567E-01  1.015E+05 -1.314E-11  6.500E-02  7.866E-01  7.863E-01
  2.000E-02  3.630E-01  1.015E+05 -3.625E-11  6.501E-02  7.949E-01  7.945E-01
  2.000E-02  3.693E-01  1.015E+05 -3.615E-11  6.500E-02  8.046E-01  8.041E-01
  2.000E-02  3.756E-01  1.015E+05 -2.543E-11  6.500E-02  8.160E-01  8.154E-01
  2.000E-02  3.819E-01  1.015E+05 -1.257E-11  6.500E-02  8.292E-01  8.286E-01
  2.000E-02  3.882E-01  1.015E+05 -9.731E-12  6.500E-02  8.445E-01  8.438E-01
  2.000E-02  3.945E-01  1.015E+05 -5.435E-12  6.500E-02  8.620E-01  8.612E-01
  2.000E-02  4.008E-01  1.014E+05  1.047E-11  6.500E-02  8.819E-01  8.810E-01
  2.000E-02  4.072E-01  1.014E+05  3.958E-11  6.500E-02  9.046E-01  9.035E-01
  2.000E-02  4.135E-01  1.014E+05  5.347E-11  6.500E-02  9.300E-01  9.288E-01
  2.000E-02  4.198E-01  1.014E+05  4.510E-11  6.500E-02  9.584E-01  9.570E-01
  2.000E-02  4.261E-01  1.014E+05 -4.713E-13  6.500E-02  9.899E-01  9.884E-01
  2.000E-02  4.324E-01  1.014E+05 -4.720E-11  6.501E-02  1.025E+00  1.023E+00
  2.000E-02  4.387E-01  1.014E+05 -6.487E-11  6.500E-02  1.062E+00  1.061E+00
  2.000E-02  4.450E-01  1.014E+05 -4.845E-11  6.500E-02  1.104E+00  1.102E+00
  2.000E-02  4.513E-01  1.014E+05  8.556E-12  6.500E-02  1.148E+00  1.146E+00
  2.000E-02  4.577E-01  1.014E+05  5.509E-11  6.500E-02  1.196E+00  1.194E+00
  2.000E-02  4.640E-01  1.014E+05  6.618E-11  6.500E-02  1.246E+00  1.244E+00
  2.000E-02  4.703E-01  1.014E+05  3.526E-11  6.500E-02  1.300E+00  1.297E+00
  2.000E-02  4.766E-01  1.014E+05 -1.533E-11  6.500E-02  1.355E+00  1.353E+00
  2.000E-02  4.829E-01  1.014E+05 -6.624E-11  6.500E-02  1.412E+00  1.409E+00
  2.000E-02  4.892E-01  1.013E+05 -9.110E-11  6.500E-02  1.469E+00  1.466E+00
  2.000E-02  4.955E-01  1.013E+05 -9.504E-11  6.500E-02  1.521E+00  1.519E+00
  2.000E-02  5.018E-01  1.013E+05 -9.713E-11  6.500E-02  1.559E+00  1.558E+00
  2.000E-02  5.050E-01  1.013E+05 -9.713E-11  6.500E-02  1.559E+00  1.558E+00
  2.800E-02  0.000E+00  1.019E+05  4.110E-07  6.500E-02  7.473E-01  7.473E-01
  2.800E-02  3.156E-03  1.019E+05  4.110E-07  6.498E-02  7.473E-01  7.473E-01
  2.800E-02  9.469E-03  1.019E+05  3.558E-07  6.500E-02  7.473E-01  7.473E-01
  2.800E-02  1.578E-02  1.019E+05  3.477E-07  6.500E-02  7.473E-01  7.473E-01
  2.800E-02  2.209E-02  1.019E+05  3.357E-07  6.500E-02  7.473E-01  7.473E-01
  2.800E-02  2.841E-02  1.019E+05  9.433E-07  6.501E-02  7.473E-01  7.473E-01
  2.800E-02  3.472E-02  1.019E+05  9.450E-07  6.500E-02  7.473E-01  7.473E-01
  2.800E-02  4.103E-02  1.019E+05  8.753E-07  6.500E-02  7.473E-01  7.473E-01
  2.800E-02  4.734E-02  1.019E+05  1.945E-07  6.500E-02  7.473E-01  7.473E-01
  2.800E-02  5.366E-02  1.019E+05  1.262E-07  6.500E-02  7.473E-01  7.473E-01
  2.800E-02  5.997E-02  1.018E+05  5.407E-08  6.500E-02  7.473E-01  7.473E-01
  2.800E-02  6.628E-02  1.018E+05  3.244E-08  6.500E-02  7.473E-01  7.473E-01
  2.800E-02  7.259E-02  1.018E+05  2.058E-08  6.500E-02  7.473E-01  7.473E-01
  2.800E-02  7.891E-02  1.018E+05  1.461E-08  6.500E-02  7.473E-01  7.473E-01
  2.800E-02  8.522E-02  1.018E+05  1.094E-08  6.500E-02  7.473E-01  7.473E-01
  2.800E-02  9.153E-02  1.018E+05  8.440E-09  6.500E-02  7.473E-01  7.473E-01
  2.800E-02  9.784E-02  1.018E+05  6.555E-09  6.501E-02  7.473E-01  7.473E-01
  2.800E-02  1.042E-01  1.018E+05  5.136E-09  6.500E-02  7.473E-01  7.473E-01
  2.800E-02  1.105E-01  1.018E+05  4.069E-09  6.500E-02  7.473E-01  7.473E-01
  2.800E-02  1.168E-01  1.018E+05  3.219E-09  6.500E-02  7.473E-01  7.473E-01
  2.800E-02  1.231E-01  1.018E+05  2.551E-09  6.500E-02  7.473E-01  7.473E-01
  2.800E-02  1.294E-01  1.018E+05  1.977E-09  6.500E-02  7.473E-01  7.473E-01
  2.800E-02  1.357E-01  1.018E+05  1.514E-09  6.500E-02  7.473E-01  7.473E-01
  2.800E-02  1.420E-01  1.017E+05  1.207E-09  6.500E-02  7.473E-01  7.473E-01
  2.800E-02  1.483E-01  1.017E+05  9.401E-10  6.500E-02  7.473E-01  7.473E-01
  2.800E-02  1.547E-01  1.017E+05  7.251E-10  6.500E-02  7.473E-01  7.473E-01
  2.800E-02  1.610E-01  1.017E+05  5.553E-10  6.500E-02  7.473E-01  7.473E-01
  2.800E-02  1.673E-01  1.017E+05  4.427E-10  6.501E-02  7.473E-01  7.473E-01
  2.800E-02  1.736E-01  1.017E+05  3.787E-10  6.500E-02  7.473E-01  7.473E-01
  2.800E-02  1.799E-01  1.017E+05  3.359E-10  6.500E-02  7.473E-01  7.473E-01
  2.800E-02  1.862E-01  1.017E+05  2.960E-10  6.500E-02  7.473E-01  7.473E-01
  2.800E-02  1.925E-01  1.017E+05  2.361E-10  6.500E-02  7.473E-01  7.473E-01
  2.800E-02  1.988E-01  1.017E+05  1.728E-10  6.500E-02  7.473E-01  7.473E-01
  2.800E-02  2.052E-01  1.017E+05  1.115E-10  6.500E-02  7.473E-01  7.473E-01
  2.800E-02  2.115E-01  1.017E+05  6.830E-11  6.500E-02  7.474E-01  7.474E-01
  2.800E-02  2.178E-01  1.017E+05  3.357E-11  6.500E-02  7.474E-01  7.474E-01
  2.800E-02  2.241E-01  1.017E+05  1.677E-11  6.500E-02  7.474E-01  7.474E-01
  2.800E-02  2.304E-01  1.016E+05 -4.954E-14  6.500E-02  7.475E-01  7.475E-01
  2.800E-02  2.367E-01  1.016E+05 -4.892E-12  6.501E-02  7.476E-01  7.476E-01
  2.800E-02  2.430E-01  1.016E+05  7.737E-12  6.500E-02  7.477E-01  7.477E-01
  2.800E-02  2.493E-01  1.016E+05  2.440E-11  6.500E-02  7.478E-01  7.478E-01
  2.800E-02  2.557E-01  1.016E+05  4.140E-11  6.500E-02  7.480E-01  7.480E-01
  2.800E-02  2.620E-01  1.016E+05  3.843E-11  6.500E-02  7.482E-01  7.482E-01
  2.800E-02  2.683E-01  1.016E+05  2.302E-11  6.500E-02  7.485E-01  7.485E-01
  2.800E-02  2.746E-01  1.016E+05  1.824E-13  6.500E-02  7.490E-01  7.489E-01
  2.800E-02  2.809E-01  1.016E+05 -8.024E-12  6.500E-02  7.495E-01  7.495E-01
  2.800E-02  2.872E-01  1.016E+05 -1.417E-11  6.500E-02  7.502E-01  7.501E-01
  2.800E-02  2.935E-01  1.016E+05 -1.912E-11  6.501E-02  7.511E-01  7.510E-01
  2.800E-02  2.998E-01  1.016E+05 -1.783E-11  6.500E-02  7.522E-01  7.521E-01
  2.800E-02  3.062E-01  1.016E+05 -1.540E-11  6.500E-02  7.536E-01  7.535E-01
  2.800E-02  3.125E-01  1.015E+05 -5.716E-12  6.500E-02  7.553E-01  7.552E-01
  2.800E-02  3.188E-01  1.015E+05  2.975E-12  6.500E-02  7.575E-01  7.574E-01
  2.800E-02  3.251E-01  1.015E+05  1.468E-11  6.500E-02  7.602E-01  7.600E-01
  2.800E-02  3.314E-01  1.015E+05  1.330E-11  6.500E-02  7.634E-01  7.633E-01
  2.800E-02  3.377E-01  1.015E+05  6.592E-12  6.500E-02  7.675E-01  7.673E-01