VARIABLES="XP","YP","P","U","V","TS","TF"
ZONE T="Zone 001"I=    82 J=    12 F=POINT
  0.000E+00  0.000E+00  1.013E+05  0.000E+00  0.000E+00  3.000E+02  2.930E+02
  0.000E+00  3.156E-03  1.013E+05  0.000E+00  0.000E+00  3.000E+02  2.930E+02
  0.000E+00  9.469E-03  1.013E+05  0.000E+00  0.000E+00  3.000E+02  2.930E+02
  0.000E+00  1.578E-02  1.013E+05  0.000E+00  0.000E+00  3.000E+02  2.930E+02
  0.000E+00  2.209E-02  1.013E+05  0.000E+00  0.000E+00  3.000E+02  2.930E+02
  0.000E+00  2.841E-02  1.013E+05  0.000E+00  0.000E+00  3.000E+02  2.930E+02
  0.000E+00  3.472E-02  1.013E+05  0.000E+00  0.000E+00  3.000E+02  2.930E+02
  0.000E+00  4.103E-02  1.013E+05  0.000E+00  0.000E+00  3.000E+02  2.930E+02
  0.000E+00  4.734E-02  1.013E+05  0.000E+00  0.000E+00  3.000E+02  2.930E+02
  0.000E+00  5.366E-02  1.013E+05  0.000E+00  0.000E+00  3.000E+02  2.930E+02
  0.000E+00  5.997E-02  1.013E+05  0.000E+00  0.000E+00  3.000E+02  2.930E+02
  0.000E+00  6.628E-02  1.013E+05  0.000E+00  0.000E+00  3.000E+02  2.930E+02
  0.000E+00  7.259E-02  1.013E+05  0.000E+00  0.000E+00  3.000E+02  2.930E+02
  0.000E+00  7.891E-02  1.013E+05  0.000E+00  0.000E+00  3.000E+02  2.930E+02
  0.000E+00  8.522E-02  1.013E+05  0.000E+00  0.000E+00  3.000E+02  2.930E+02
  0.000E+00  9.153E-02  1.013E+05  0.000E+00  0.000E+00  3.000E+02  2.930E+02
  0.000E+00  9.784E-02  1.013E+05  0.000E+00  0.000E+00  3.000E+02  2.930E+02
  0.000E+00  1.042E-01  1.013E+05  0.000E+00  0.000E+00  3.000E+02  2.930E+02
  0.000E+00  1.105E-01  1.013E+05  0.000E+00  0.000E+00  3.000E+02  2.930E+02
  0.000E+00  1.168E-01  1.013E+05  0.000E+00  0.000E+00  3.000E+02  2.930E+02
  0.000E+00  1.231E-01  1.013E+05  0.000E+00  0.000E+00  3.000E+02  2.930E+02
  0.000E+00  1.294E-01  1.013E+05  0.000E+00  0.000E+00  3.000E+02  2.930E+02
  0.000E+00  1.357E-01  1.013E+05  0.000E+00  0.000E+00  3.000E+02  2.930E+02
  0.000E+00  1.420E-01  1.013E+05  0.000E+00  0.000E+00  3.000E+02  2.930E+02
  0.000E+00  1.483E-01  1.013E+05  0.000E+00  0.000E+00  3.000E+02  2.930E+02
  0.000E+00  1.547E-01  1.013E+05  0.000E+00  0.000E+00  3.000E+02  2.930E+02
  0.000E+00  1.610E-01  1.013E+05  0.000E+00  0.000E+00  3.000E+02  2.930E+02
  0.000E+00  1.673E-01  1.013E+05  0.000E+00  0.000E+00  3.000E+02  2.930E+02
  0.000E+00  1.736E-01  1.013E+05  0.000E+00  0.000E+00  3.000E+02  2.930E+02
  0.000E+00  1.799E-01  1.013E+05  0.000E+00  0.000E+00  3.000E+02  2.930E+02
  0.000E+00  1.862E-01  1.013E+05  0.000E+00  0.000E+00  3.000E+02  2.930E+02
  0.000E+00  1.925E-01  1.013E+05  0.000E+00  0.000E+00  3.000E+02  2.930E+02
  0.000E+00  1.988E-01  1.013E+05  0.000E+00  0.000E+00  3.000E+02  2.930E+02
  0.000E+00  2.052E-01  1.013E+05  0.000E+00  0.000E+00  3.000E+02  2.930E+02
  0.000E+00  2.115E-01  1.013E+05  0.000E+00  0.000E+00  3.000E+02  2.930E+02
  0.000E+00  2.178E-01  1.013E+05  0.000E+00  0.000E+00  3.000E+02  2.930E+02
  0.000E+00  2.241E-01  1.013E+05  0.000E+00  0.000E+00  3.000E+02  2.930E+02
  0.000E+00  2.304E-01  1.013E+05  0.000E+00  0.000E+00  3.000E+02  2.930E+02
  0.000E+00  2.367E-01  1.013E+05  0.000E+00  0.000E+00  3.000E+02  2.930E+02
  0.000E+00  2.430E-01  1.013E+05  0.000E+00  0.000E+00  3.000E+02  2.930E+02
  0.000E+00  2.493E-01  1.013E+05  0.000E+00  0.000E+00  3.000E+02  2.930E+02
  0.000E+00  2.557E-01  1.013E+05  0.000E+00  0.000E+00  3.000E+02  2.930E+02
  0.000E+00  2.620E-01  1.013E+05  0.000E+00  0.000E+00  3.000E+02  2.930E+02
  0.000E+00  2.683E-01  1.013E+05  0.000E+00  0.000E+00  3.000E+02  2.930E+02
  0.000E+00  2.746E-01  1.013E+05  0.000E+00  0.000E+00  3.000E+02  2.930E+02
  0.000E+00  2.809E-01  1.013E+05  0.000E+00  0.000E+00  3.000E+02  2.930E+02
  0.000E+00  2.872E-01  1.013E+05  0.000E+00  0.000E+00  3.000E+02  2.930E+02
  0.000E+00  2.935E-01  1.013E+05  0.000E+00  0.000E+00  3.000E+02  2.930E+02
  0.000E+00  2.998E-01  1.013E+05  0.000E+00  0.000E+00  3.000E+02  2.930E+02
  0.000E+00  3.062E-01  1.013E+05  0.000E+00  0.000E+00  3.000E+02  2.930E+02
  0.000E+00  3.125E-01  1.013E+05  0.000E+00  0.000E+00  3.000E+02  2.930E+02
  0.000E+00  3.188E-01  1.013E+05  0.000E+00  0.000E+00  3.000E+02  2.930E+02
  0.000E+00  3.251E-01  1.013E+05  0.000E+00  0.000E+00  3.000E+02  2.930E+02
  0.000E+00  3.314E-01  1.013E+05  0.000E+00  0.000E+00  3.000E+02  2.930E+02
  0.000E+00  3.377E-01  1.013E+05  0.000E+00  0.000E+00  3.000E+02  2.930E+02
  0.000E+00  3.440E-01  1.013E+05  0.000E+00  0.000E+00  3.000E+02  2.930E+02
  0.000E+00  3.503E-01  1.013E+05  0.000E+00  0.000E+00  3.000E+02  2.930E+02
  0.000E+00  3.567E-01  1.013E+05  0.000E+00  0.000E+00  3.000E+02  2.930E+02
  0.000E+00  3.630E-01  1.013E+05  0.000E+00  0.000E+00  3.000E+02  2.930E+02
  0.000E+00  3.693E-01  1.013E+05  0.000E+00  0.000E+00  3.000E+02  2.930E+02
  0.000E+00  3.756E-01  1.013E+05  0.000E+00  0.000E+00  3.000E+02  2.930E+02
  0.000E+00  3.819E-01  1.013E+05  0.000E+00  0.000E+00  3.000E+02  2.930E+02
  0.000E+00  3.882E-01  1.013E+05  0.000E+00  0.000E+00  3.000E+02  2.930E+02
  0.000E+00  3.945E-01  1.013E+05  0.000E+00  0.000E+00  3.000E+02  2.930E+02
  0.000E+00  4.008E-01  1.013E+05  0.000E+00  0.000E+00  3.000E+02  2.930E+02
  0.000E+00  4.072E-01  1.013E+05  0.000E+00  0.000E+00  3.000E+02  2.930E+02
  0.000E+00  4.135E-01  1.013E+05  0.000E+00  0.000E+00  3.000E+02  2.930E+02
  0.000E+00  4.198E-01  1.013E+05  0.000E+00  0.000E+00  3.000E+02  2.930E+02
  0.000E+00  4.261E-01  1.013E+05  0.000E+00  0.000E+00  3.000E+02  2.930E+02
  0.000E+00  4.324E-01  1.013E+05  0.000E+00  0.000E+00  3.000E+02  2.930E+02
  0.000E+00  4.387E-01  1.013E+05  0.000E+00  0.000E+00  3.000E+02  2.930E+02
  0.000E+00  4.450E-01  1.013E+05  0.000E+00  0.000E+00  3.000E+02  2.930E+02
  0.000E+00  4.513E-01  1.013E+05  0.000E+00  0.000E+00  3.000E+02  2.930E+02
  0.000E+00  4.577E-01  1.013E+05  0.000E+00  0.000E+00  3.000E+02  2.930E+02
  0.000E+00  4.640E-01  1.013E+05  0.000E+00  0.000E+00  3.000E+02  2.930E+02
  0.000E+00  4.703E-01  1.013E+05  0.000E+00  0.000E+00  3.000E+02  2.930E+02
  0.000E+00  4.766E-01  1.013E+05  0.000E+00  0.000E+00  3.000E+02  2.930E+02
  0.000E+00  4.829E-01  1.013E+05  0.000E+00  0.000E+00  3.000E+02  2.930E+02
  0.000E+00  4.892E-01  1.013E+05  0.000E+00  0.000E+00  3.000E+02  2.930E+02
  0.000E+00  4.955E-01  1.013E+05  0.000E+00  0.000E+00  3.000E+02  2.930E+02
  0.000E+00  5.018E-01  1.013E+05  0.000E+00  0.000E+00  3.000E+02  2.930E+02
  0.000E+00  5.050E-01  1.013E+05  0.000E+00  0.000E+00  3.000E+02  2.930E+02
  1.417E-02  0.000E+00  1.013E+05 -4.670E-01  6.500E-02  3.000E+02  2.937E+02
  1.417E-02  3.156E-03  1.013E+05 -4.670E-01  1.179E+00  3.000E+02  2.937E+02
  1.417E-02  9.469E-03  1.013E+05 -6.312E-01  1.271E+00  3.000E+02  2.937E+02
  1.417E-02  1.578E-02  1.013E+05 -7.592E-01  1.477E+00  3.000E+02  2.938E+02
  1.417E-02  2.209E-02  1.013E+05 -8.620E-01  1.712E+00  3.000E+02  2.938E+02
  1.417E-02  2.841E-02  1.013E+05 -9.422E-01  1.926E+00  3.000E+02  2.938E+02
  1.417E-02  3.472E-02  1.013E+05 -1.001E+00  2.114E+00  3.000E+02  2.938E+02
  1.417E-02  4.103E-02  1.013E+05 -1.031E+00  2.267E+00  3.000E+02  2.938E+02
  1.417E-02  4.734E-02  1.013E+05 -1.035E+00  2.392E+00  3.000E+02  2.938E+02
  1.417E-02  5.366E-02  1.013E+05 -1.017E+00  2.495E+00  3.000E+02  2.938E+02
  1.417E-02  5.997E-02  1.013E+05 -9.800E-01  2.582E+00  3.000E+02  2.938E+02
  1.417E-02  6.628E-02  1.013E+05 -9.302E-01  2.654E+00  3.000E+02  2.938E+02
  1.417E-02  7.259E-02  1.013E+05 -8.719E-01  2.712E+00  3.000E+02  2.938E+02
  1.417E-02  7.891E-02  1.013E+05 -8.098E-01  2.757E+00  3.000E+02  2.939E+02
  1.417E-02  8.522E-02  1.013E+05 -7.465E-01  2.790E+00  3.000E+02  2.939E+02
  1.417E-02  9.153E-02  1.013E+05 -6.835E-01  2.811E+00  3.000E+02  2.939E+02
  1.417E-02  9.784E-02  1.013E+05 -6.228E-01  2.823E+00  3.000E+02  2.939E+02
  1.417E-02  1.042E-01  1.013E+05 -5.649E-01  2.825E+00  3.000E+02  2.939E+02
  1.417E-02  1.105E-01  1.013E+05 -5.097E-01  2.819E+00  3.000E+02  2.939E+02
  1.417E-02  1.168E-01  1.013E+05 -4.574E-01  2.806E+00  3.000E+02  2.939E+02
  1.417E-02  1.231E-01  1.013E+05 -4.079E-01  2.788E+00  3.000E+02  2.939E+02
  1.417E-02  1.294E-01  1.013E+05 -3.614E-01  2.765E+00  3.000E+02  2.939E+02
  1.417E-02  1.357E-01  1.013E+05 -3.179E-01  2.737E+00  3.000E+02  2.939E+02
  1.417E-02  1.420E-01  1.013E+05 -2.768E-01  2.707E+00  3.000E+02  2.940E+02
  1.417E-02  1.483E-01  1.013E+05 -2.384E-01  2.675E+00  3.000E+02  2.940E+02
  1.417E-02  1.547E-01  1.013E+05 -2.027E-01  2.643E+00  3.000E+02  2.940E+02
  1.417E-02  1.610E-01  1.013E+05 -1.702E-01  2.610E+00  3.000E+02  2.940E+02
  1.417E-02  1.673E-01  1.013E+05 -1.401E-01  2.576E+00  3.000E+02  2.940E+02
  1.417E-02  1.736E-01  1.013E+05 -1.131E-01  2.542E+00  3.000E+02  2.940E+02
  1.417E-02  1.799E-01  1.013E+05 -8.850E-02  2.508E+00  3.000E+02  2.940E+02
  1.417E-02  1.862E-01  1.013E+05 -6.618E-02  2.474E+00  3.000E+02  2.940E+02
  1.417E-02  1.925E-01  1.013E+05 -4.605E-02  2.441E+00  3.000E+02  2.940E+02
  1.417E-02  1.988E-01  1.013E+05 -2.887E-02  2.408E+00  3.000E+02  2.940E+02
  1.417E-02  2.052E-01  1.013E+05 -1.355E-02  2.376E+00  3.000E+02  2.940E+02
  1.417E-02  2.115E-01  1.013E+05 -3.286E-04  2.345E+00  3.000E+02  2.940E+02
  1.417E-02  2.178E-01  1.013E+05  1.084E-02  2.315E+00  3.000E+02  2.940E+02
  1.417E-02  2.241E-01  1.013E+05  2.019E-02  2.285E+00  3.000E+02  2.940E+02
  1.417E-02  2.304E-01  1.013E+05  2.829E-02  2.257E+00  3.000E+02  2.940E+02
  1.417E-02  2.367E-01  1.013E+05  3.481E-02  2.230E+00  3.000E+02  2.940E+02
  1.417E-02  2.430E-01  1.013E+05  4.029E-02  2.204E+00  3.000E+02  2.940E+02
  1.417E-02  2.493E-01  1.013E+05  4.485E-02  2.179E+00  3.000E+02  2.940E+02
  1.417E-02  2.557E-01  1.013E+05  4.850E-02  2.156E+00  3.000E+02  2.940E+02
  1.417E-02  2.620E-01  1.013E+05  5.084E-02  2.135E+00  3.000E+02  2.940E+02
  1.417E-02  2.683E-01  1.013E+05  5.247E-02  2.114E+00  3.000E+02  2.940E+02
  1.417E-02  2.746E-01  1.013E+05  5.304E-02  2.094E+00  3.000E+02  2.940E+02
  1.417E-02  2.809E-01  1.013E+05  5.316E-02  2.074E+00  3.000E+02  2.940E+02
  1.417E-02  2.872E-01  1.013E+05  5.293E-02  2.057E+00  3.000E+02  2.940E+02
  1.417E-02  2.935E-01  1.013E+05  5.231E-02  2.041E+00  3.000E+02  2.940E+02
  1.417E-02  2.998E-01  1.013E+05  5.088E-02  2.025E+00  3.000E+02  2.940E+02
  1.417E-02  3.062E-01  1.013E+05  4.976E-02  2.009E+00  3.000E+02  2.940E+02
  1.417E-02  3.125E-01  1.013E+05  4.846E-02  1.995E+00  3.000E+02  2.940E+02
  1.417E-02  3.188E-01  1.013E+05  4.692E-02  1.982E+00  3.000E+02  2.940E+02
  1.417E-02  3.251E-01  1.013E+05  4.514E-02  1.970E+00  3.000E+02  2.940E+02
  1.417E-02  3.314E-01  1.013E+05  4.319E-02  1.958E+00  3.000E+02  2.940E+02
  1.417E-02  3.377E-01  1.013E+05  4.171E-02  1.946E+00  3.000E+02  2.940E+02
  1.417E-02  3.440E-01  1.013E+05  4.056E-02  1.936E+00  3.000E+02  2.940E+02
  1.417E-02  3.503E-01  1.013E+05  3.852E-02  1.926E+00  3.000E+02  2.940E+02
  1.417E-02  3.567E-01  1.013E+05  3.677E-02  1.916E+00  3.000E+02  2.940E+02
  1.417E-02  3.630E-01  1.013E+05  3.483E-02  1.907E+00  3.000E+02  2.940E+02
  1.417E-02  3.693E-01  1.013E+05  3.324E-02  1.897E+00  3.000E+02  2.940E+02
  1.417E-02  3.756E-01  1.013E+05  3.195E-02  1.889E+00  3.000E+02  2.940E+02
  1.417E-02  3.819E-01  1.013E+05  3.031E-02  1.881E+00  3.000E+02  2.940E+02
  1.417E-02  3.882E-01  1.013E+05  2.890E-02  1.872E+00  3.000E+02  2.940E+02
  1.417E-02  3.945E-01  1.013E+05  2.710E-02  1.864E+00  3.000E+02  2.940E+02
  1.417E-02  4.008E-01  1.013E+05  2.490E-02  1.857E+00  3.000E+02  2.940E+02
  1.417E-02  4.072E-01  1.013E+05  2.312E-02  1.849E+00  3.000E+02  2.940E+02
  1.417E-02  4.135E-01  1.013E+05  2.235E-02  1.842E+00  3.000E+02  2.940E+02
  1.417E-02  4.198E-01  1.013E+05  2.116E-02  1.835E+00  3.000E+02  2.940E+02
  1.417E-02  4.261E-01  1.013E+05  2.009E-02  1.828E+00  3.000E+02  2.940E+02
  1.417E-02  4.324E-01  1.013E+05  1.859E-02  1.821E+00  3.000E+02  2.940E+02
  1.417E-02  4.387E-01  1.013E+05  1.736E-02  1.815E+00  3.000E+02  2.941E+02
  1.417E-02  4.450E-01  1.013E+05  1.637E-02  1.808E+00  3.000E+02  2.941E+02
  1.417E-02  4.513E-01  1.013E+05  1.497E-02  1.801E+00  3.000E+02  2.941E+02
  1.417E-02  4.577E-01  1.013E+05  1.450E-02  1.795E+00  3.000E+02  2.941E+02
  1.417E-02  4.640E-01  1.013E+05  1.348E-02  1.788E+00  3.000E+02  2.941E+02
  1.417E-02  4.703E-01  1.013E+05  1.190E-02  1.781E+00  3.000E+02  2.941E+02
  1.417E-02  4.766E-01  1.013E+05  1.137E-02  1.774E+00  3.000E+02  2.941E+02
  1.417E-02  4.829E-01  1.013E+05  1.113E-02  1.768E+00  3.000E+02  2.941E+02
  1.417E-02  4.892E-01  1.013E+05  1.100E-02  1.763E+00  3.000E+02  2.941E+02
  1.417E-02  4.955E-01  1.013E+05  1.104E-02  1.751E+00  3.000E+02  2.941E+02
  1.417E-02  5.018E-01  1.013E+05  1.086E-02  1.753E+00  3.000E+02  2.941E+02
  1.417E-02  5.050E-01  1.013E+05  1.086E-02  1.753E+00  3.000E+02  2.941E+02
  4.252E-02  0.000E+00  1.013E+05 -7.839E-01  6.500E-02  3.000E+02  2.938E+02
  4.252E-02  3.156E-03  1.013E+05 -7.839E-01  9.379E-01  3.000E+02  2.938E+02
  4.252E-02  9.469E-03  1.013E+05 -8.202E-01  1.191E+00  3.000E+02  2.939E+02
  4.252E-02  1.578E-02  1.013E+05 -8.026E-01  1.585E+00  3.000E+02  2.939E+02
  4.252E-02  2.209E-02  1.013E+05 -7.559E-01  1.925E+00  3.000E+02  2.939E+02
  4.252E-02  2.841E-02  1.013E+05 -6.957E-01  2.161E+00  3.000E+02  2.939E+02
  4.252E-02  3.472E-02  1.013E+05 -6.302E-01  2.317E+00  3.000E+02  2.940E+02
  4.252E-02  4.103E-02  1.013E+05 -5.636E-01  2.416E+00  3.000E+02  2.940E+02
  4.252E-02  4.734E-02  1.013E+05 -4.978E-01  2.475E+00  3.000E+02  2.940E+02
  4.252E-02  5.366E-02  1.013E+05 -4.339E-01  2.506E+00  3.000E+02  2.940E+02
  4.252E-02  5.997E-02  1.013E+05 -3.731E-01  2.514E+00  3.000E+02  2.940E+02
  4.252E-02  6.628E-02  1.013E+05 -3.162E-01  2.504E+00  3.000E+02  2.940E+02
  4.252E-02  7.259E-02  1.013E+05 -2.638E-01  2.477E+00  3.000E+02  2.941E+02
  4.252E-02  7.891E-02  1.013E+05 -2.162E-01  2.438E+00  3.000E+02  2.941E+02
  4.252E-02  8.522E-02  1.013E+05 -1.732E-01  2.389E+00  3.000E+02  2.941E+02
  4.252E-02  9.153E-02  1.013E+05 -1.344E-01  2.334E+00  3.000E+02  2.941E+02
  4.252E-02  9.784E-02  1.013E+05 -9.973E-02  2.274E+00  3.000E+02  2.941E+02
  4.252E-02  1.042E-01  1.013E+05 -6.874E-02  2.212E+00  3.000E+02  2.941E+02
  4.252E-02  1.105E-01  1.013E+05 -4.098E-02  2.148E+00  3.000E+02  2.941E+02
  4.252E-02  1.168E-01  1.013E+05 -1.618E-02  2.083E+00  3.000E+02  2.941E+02
  4.252E-02  1.231E-01  1.013E+05  5.817E-03  2.019E+00  3.000E+02  2.941E+02
  4.252E-02  1.294E-01  1.013E+05  2.512E-02  1.955E+00  3.000E+02  2.941E+02
  4.252E-02  1.357E-01  1.013E+05  4.195E-02  1.892E+00  3.000E+02  2.941E+02
  4.252E-02  1.420E-01  1.013E+05  5.648E-02  1.831E+00  3.000E+02  2.941E+02
  4.252E-02  1.483E-01  1.013E+05  6.883E-02  1.772E+00  3.000E+02  2.941E+02
  4.252E-02  1.547E-01  1.013E+05  7.894E-02  1.715E+00  3.000E+02  2.941E+02
  4.252E-02  1.610E-01  1.013E+05  8.683E-02  1.660E+00  3.000E+02  2.941E+02
  4.252E-02  1.673E-01  1.013E+05  9.253E-02  1.609E+00  3.000E+02  2.941E+02
  4.252E-02  1.736E-01  1.013E+05  9.606E-02  1.560E+00  3.000E+02  2.941E+02
  4.252E-02  1.799E-01  1.013E+05  9.757E-02  1.515E+00  3.000E+02  2.941E+02
  4.252E-02  1.862E-01  1.013E+05  9.721E-02  1.472E+00  3.000E+02  2.941E+02
  4.252E-02  1.925E-01  1.013E+05  9.498E-02  1.431E+00  3.000E+02  2.941E+02
  4.252E-02  1.988E-01  1.013E+05  9.103E-02  1.394E+00  3.000E+02  2.941E+02
  4.252E-02  2.052E-01  1.013E+05  8.566E-02  1.360E+00  3.000E+02  2.942E+02
  4.252E-02  2.115E-01  1.013E+05  7.909E-02  1.328E+00  3.000E+02  2.942E+02
  4.252E-02  2.178E-01  1.013E+05  7.155E-02  1.299E+00  3.000E+02  2.942E+02
  4.252E-02  2.241E-01  1.013E+05  6.322E-02  1.274E+00  3.000E+02  2.942E+02
  4.252E-02  2.304E-01  1.013E+05  5.446E-02  1.251E+00  3.000E+02  2.942E+02
  4.252E-02  2.367E-01  1.013E+05  4.551E-02  1.230E+00  3.000E+02  2.942E+02
  4.252E-02  2.430E-01  1.013E+05  3.646E-02  1.212E+00  3.000E+02  2.942E+02
  4.252E-02  2.493E-01  1.013E+05  2.743E-02  1.197E+00  3.000E+02  2.942E+02
  4.252E-02  2.557E-01  1.013E+05  1.840E-02  1.182E+00  3.000E+02  2.942E+02
  4.252E-02  2.620E-01  1.013E+05  9.437E-03  1.169E+00  3.000E+02  2.942E+02
  4.252E-02  2.683E-01  1.013E+05  7.771E-04  1.157E+00  3.000E+02  2.942E+02
  4.252E-02  2.746E-01  1.013E+05 -7.547E-03  1.146E+00  3.000E+02  2.942E+02
  4.252E-02  2.809E-01  1.013E+05 -1.549E-02  1.138E+00  3.000E+02  2.942E+02
  4.252E-02  2.872E-01  1.013E+05 -2.301E-02  1.131E+00  3.000E+02  2.942E+02
  4.252E-02  2.935E-01  1.013E+05 -3.022E-02  1.125E+00  3.000E+02  2.942E+02
  4.252E-02  2.998E-01  1.013E+05 -3.714E-02  1.120E+00  3.000E+02  2.941E+02
  4.252E-02  3.062E-01  1.013E+05 -4.351E-02  1.116E+00  3.000E+02  2.941E+02
  4.252E-02  3.125E-01  1.013E+05 -4.939E-02  1.113E+00  3.000E+02  2.941E+02
  4.252E-02  3.188E-01  1.013E+05 -5.492E-02  1.110E+00  3.000E+02  2.941E+02
  4.252E-02  3.251E-01  1.013E+05 -5.998E-02  1.108E+00  3.000E+02  2.941E+02
  4.252E-02  3.314E-01  1.013E+05 -6.451E-02  1.107E+00  3.000E+02  2.941E+02
  4.252E-02  3.377E-01  1.013E+05 -6.846E-02  1.106E+00  3.000E+02  2.941E+02
  4.252E-02  3.440E-01  1.013E+05 -7.188E-02  1.103E+00  3.000E+02  2.941E+02
  4.252E-02  3.503E-01  1.013E+05 -7.499E-02  1.101E+00  3.000E+02  2.941E+02
  4.252E-02  3.567E-01  1.013E+05 -7.761E-02  1.101E+00  3.000E+02  2.941E+02
  4.252E-02  3.630E-01  1.013E+05 -7.971E-02  1.100E+00  3.000E+02  2.941E+02
  4.252E-02  3.693E-01  1.013E+05 -8.135E-02  1.099E+00  3.000E+02  2.941E+02
  4.252E-02  3.756E-01  1.013E+05 -8.276E-02  1.098E+00  3.000E+02  2.941E+02
  4.252E-02  3.819E-01  1.013E+05 -8.399E-02  1.096E+00  3.000E+02  2.941E+02
  4.252E-02  3.882E-01  1.013E+05 -8.479E-02  1.093E+00  3.000E+02  2.941E+02
  4.252E-02  3.945E-01  1.013E+05 -8.527E-02  1.091E+00  3.000E+02  2.941E+02
  4.252E-02  4.008E-01  1.013E+05 -8.569E-02  1.090E+00  3.000E+02  2.941E+02
  4.252E-02  4.072E-01  1.013E+05 -8.591E-02  1.091E+00  3.000E+02  2.941E+02
  4.252E-02  4.135E-01  1.013E+05 -8.585E-02  1.090E+00  3.000E+02  2.941E+02
  4.252E-02  4.198E-01  1.013E+05 -8.559E-02  1.088E+00  3.000E+02  2.941E+02
  4.252E-02  4.261E-01  1.013E+05 -8.526E-02  1.085E+00  3.000E+02  2.941E+02
  4.252E-02  4.324E-01  1.013E+05 -8.504E-02  1.083E+00  3.000E+02  2.941E+02
  4.252E-02  4.387E-01  1.013E+05 -8.471E-02  1.082E+00  3.000E+02  2.941E+02
  4.252E-02  4.450E-01  1.013E+05 -8.417E-02  1.080E+00  3.000E+02  2.941E+02
  4.252E-02  4.513E-01  1.013E+05 -8.351E-02  1.078E+00  3.000E+02  2.941E+02
  4.252E-02  4.577E-01  1.013E+05 -8.277E-02  1.075E+00  3.000E+02  2.941E+02
  4.252E-02  4.640E-01  1.013E+05 -8.216E-02  1.070E+00  3.000E+02  2.941E+02
  4.252E-02  4.703E-01  1.013E+05 -8.172E-02  1.067E+00  3.000E+02  2.941E+02
  4.252E-02  4.766E-01  1.013E+05 -8.110E-02  1.066E+00  3.000E+02  2.941E+02
  4.252E-02  4.829E-01  1.013E+05 -8.050E-02  1.062E+00  3.000E+02  2.941E+02
  4.252E-02  4.892E-01  1.013E+05 -7.995E-02  1.059E+00  3.000E+02  2.941E+02
  4.252E-02  4.955E-01  1.013E+05 -7.976E-02  1.042E+00  3.000E+02  2.941E+02
  4.252E-02  5.018E-01  1.013E+05 -7.932E-02  1.058E+00  3.000E+02  2.941E+02
  4.252E-02  5.050E-01  1.013E+05 -7.932E-02  1.058E+00  3.000E+02  2.941E+02
  7.087E-02  0.000E+00  1.013E+05 -3.950E-01  6.500E-02  3.000E+02  2.941E+02
  7.087E-02  3.156E-03  1.013E+05 -3.950E-01  8.710E-01  3.000E+02  2.941E+02
  7.087E-02  9.469E-03  1.013E+05 -2.517E-01  1.073E+00  3.000E+02  2.941E+02
  7.087E-02  1.578E-02  1.013E+05 -1.343E-01  1.397E+00  3.000E+02  2.941E+02
  7.087E-02  2.209E-02  1.013E+05 -4.845E-02  1.599E+00  3.000E+02  2.942E+02
  7.087E-02  2.841E-02  1.013E+05  1.199E-02  1.675E+00  3.000E+02  2.942E+02
  7.087E-02  3.472E-02  1.013E+05  5.320E-02  1.682E+00  3.000E+02  2.942E+02
  7.087E-02  4.103E-02  1.013E+05  8.149E-02  1.659E+00  3.000E+02  2.942E+02
  7.087E-02  4.734E-02  1.013E+05  1.014E-01  1.618E+00  3.000E+02  2.942E+02
  7.087E-02  5.366E-02  1.013E+05  1.160E-01  1.568E+00  3.000E+02  2.942E+02
  7.087E-02  5.997E-02  1.013E+05  1.268E-01  1.507E+00  3.000E+02  2.942E+02
  7.087E-02  6.628E-02  1.013E+05  1.348E-01  1.436E+00  3.000E+02  2.942E+02
  7.087E-02  7.259E-02  1.013E+05  1.411E-01  1.359E+00  3.000E+02  2.942E+02
  7.087E-02  7.891E-02  1.013E+05  1.467E-01  1.279E+00  3.000E+02  2.942E+02
  7.087E-02  8.522E-02  1.013E+05  1.525E-01  1.198E+00  3.000E+02  2.943E+02
  7.087E-02  9.153E-02  1.013E+05  1.586E-01  1.120E+00  3.000E+02  2.943E+02
  7.087E-02  9.784E-02  1.013E+05  1.651E-01  1.045E+00  3.000E+02  2.943E+02
  7.087E-02  1.042E-01  1.013E+05  1.718E-01  9.731E-01  3.000E+02  2.943E+02
  7.087E-02  1.105E-01  1.013E+05  1.788E-01  9.053E-01  3.000E+02  2.943E+02
  7.087E-02  1.168E-01  1.013E+05  1.856E-01  8.409E-01  3.000E+02  2.943E+02
  7.087E-02  1.231E-01  1.013E+05  1.918E-01  7.800E-01  3.000E+02  2.943E+02
  7.087E-02  1.294E-01  1.013E+05  1.967E-01  7.223E-01  3.000E+02  2.943E+02
  7.087E-02  1.357E-01  1.013E+05  2.001E-01  6.678E-01  3.000E+02  2.943E+02
  7.087E-02  1.420E-01  1.013E+05  2.018E-01  6.170E-01  3.000E+02  2.943E+02
  7.087E-02  1.483E-01  1.013E+05  2.013E-01  5.714E-01  3.000E+02  2.943E+02
  7.087E-02  1.547E-01  1.013E+05  1.989E-01  5.303E-01  3.000E+02  2.943E+02
  7.087E-02  1.610E-01  1.013E+05  1.947E-01  4.929E-01  3.000E+02  2.943E+02
  7.087E-02  1.673E-01  1.013E+05  1.886E-01  4.591E-01  3.000E+02  2.943E+02
  7.087E-02  1.736E-01  1.013E+05  1.809E-01  4.295E-01  3.000E+02  2.943E+02
  7.087E-02  1.799E-01  1.013E+05  1.717E-01  4.040E-01  3.000E+02  2.943E+02
  7.087E-02  1.862E-01  1.013E+05  1.611E-01  3.813E-01  3.000E+02  2.943E+02
  7.087E-02  1.925E-01  1.013E+05  1.490E-01  3.581E-01  3.000E+02  2.943E+02
  7.087E-02  1.988E-01  1.013E+05  1.358E-01  3.364E-01  3.000E+02  2.943E+02
  7.087E-02  2.052E-01  1.013E+05  1.213E-01  3.165E-01  3.000E+02  2.943E+02
  7.087E-02  2.115E-01  1.013E+05  1.058E-01  2.978E-01  3.000E+02  2.943E+02
  7.087E-02  2.178E-01  1.013E+05  8.972E-02  2.805E-01  3.000E+02  2.943E+02
  7.087E-02  2.241E-01  1.013E+05  7.303E-02  2.656E-01  3.000E+02  2.943E+02
  7.087E-02  2.304E-01  1.013E+05  5.587E-02  2.540E-01  3.000E+02  2.943E+02
  7.087E-02  2.367E-01  1.013E+05  3.853E-02  2.441E-01  3.000E+02  2.943E+02
  7.087E-02  2.430E-01  1.013E+05  2.121E-02  2.350E-01  3.000E+02  2.943E+02
  7.087E-02  2.493E-01  1.013E+05  4.196E-03  2.273E-01  3.000E+02  2.943E+02
  7.087E-02  2.557E-01  1.013E+05 -1.238E-02  2.224E-01  3.000E+02  2.943E+02
  7.087E-02  2.620E-01  1.013E+05 -2.822E-02  2.213E-01  3.000E+02  2.943E+02
  7.087E-02  2.683E-01  1.013E+05 -4.315E-02  2.231E-01  3.000E+02  2.943E+02
  7.087E-02  2.746E-01  1.013E+05 -5.713E-02  2.263E-01  3.000E+02  2.943E+02
  7.087E-02  2.809E-01  1.013E+05 -7.003E-02  2.312E-01  3.000E+02  2.943E+02
  7.087E-02  2.872E-01  1.013E+05 -8.157E-02  2.388E-01  3.000E+02  2.943E+02
  7.087E-02  2.935E-01  1.013E+05 -9.180E-02  2.481E-01  3.000E+02  2.943E+02
  7.087E-02  2.998E-01  1.013E+05 -1.008E-01  2.585E-01  3.000E+02  2.943E+02
  7.087E-02  3.062E-01  1.013E+05 -1.083E-01  2.704E-01  3.000E+02  2.943E+02
  7.087E-02  3.125E-01  1.013E+05 -1.143E-01  2.836E-01  3.000E+02  2.943E+02
  7.087E-02  3.188E-01  1.013E+05 -1.191E-01  2.988E-01  3.000E+02  2.943E+02
  7.087E-02  3.251E-01  1.013E+05 -1.227E-01  3.166E-01  3.000E+02  2.943E+02
  7.087E-02  3.314E-01  1.013E+05 -1.252E-01  3.354E-01  3.000E+02  2.943E+02
  7.087E-02  3.377E-01  1.013E+05 -1.270E-01  3.542E-01  3.000E+02  2.943E+02
  7.087E-02  3.440E-01  1.013E+05 -1.280E-01  3.729E-01  3.000E+02  2.943E+02
  7.087E-02  3.503E-01  1.013E+05 -1.281E-01  3.928E-01  3.000E+02  2.943E+02
  7.087E-02  3.567E-01  1.013E+05 -1.279E-01  4.147E-01  3.000E+02  2.943E+02
  7.087E-02  3.630E-01  1.013E+05 -1.288E-01  4.356E-01  3.000E+02  2.943E+02
  7.087E-02  3.693E-01  1.013E+05 -1.302E-01  4.526E-01  3.000E+02  2.943E+02
  7.087E-02  3.756E-01  1.013E+05 -1.314E-01  4.691E-01  3.000E+02  2.942E+02
  7.087E-02  3.819E-01  1.013E+05 -1.322E-01  4.879E-01  3.000E+02  2.942E+02
  7.087E-02  3.882E-01  1.013E+05 -1.321E-01  5.063E-01  3.000E+02  2.942E+02
  7.087E-02  3.945E-01  1.013E+05 -1.308E-01  5.229E-01  3.000E+02  2.942E+02
  7.087E-02  4.008E-01  1.013E+05 -1.287E-01  5.380E-01  3.000E+02  2.942E+02
  7.087E-02  4.072E-01  1.013E+05 -1.267E-01  5.534E-01  3.000E+02  2.942E+02
  7.087E-02  4.135E-01  1.013E+05 -1.250E-01  5.709E-01  3.000E+02  2.942E+02
  7.087E-02  4.198E-01  1.013E+05 -1.227E-01  5.859E-01  3.000E+02  2.942E+02
  7.087E-02  4.261E-01  1.013E+05 -1.186E-01  5.941E-01  3.000E+02  2.942E+02
  7.087E-02  4.324E-01  1.013E+05 -1.136E-01  6.017E-01  3.000E+02  2.942E+02
  7.087E-02  4.387E-01  1.013E+05 -1.088E-01  6.164E-01  3.000E+02  2.942E+02
  7.087E-02  4.450E-01  1.013E+05 -1.040E-01  6.327E-01  3.000E+02  2.942E+02
  7.087E-02  4.513E-01  1.013E+05 -9.916E-02  6.407E-01  3.000E+02  2.942E+02
  7.087E-02  4.577E-01  1.013E+05 -9.332E-02  6.422E-01  3.000E+02  2.942E+02
  7.087E-02  4.640E-01  1.013E+05 -8.542E-02  6.422E-01  3.000E+02  2.942E+02
  7.087E-02  4.703E-01  1.013E+05 -7.650E-02  6.425E-01  3.000E+02  2.942E+02
  7.087E-02  4.766E-01  1.013E+05 -6.752E-02  6.469E-01  3.000E+02  2.942E+02
  7.087E-02  4.829E-01  1.013E+05 -5.851E-02  6.462E-01  3.000E+02  2.942E+02
  7.087E-02  4.892E-01  1.013E+05 -4.855E-02  6.460E-01  3.000E+02  2.942E+02
  7.087E-02  4.955E-01  1.013E+05 -4.510E-02  5.694E-01  3.000E+02  2.942E+02
  7.087E-02  5.018E-01  1.013E+05 -3.131E-02  7.076E-01  3.000E+02  2.942E+02
  7.087E-02  5.050E-01  1.013E+05 -3.131E-02  7.076E-01  3.000E+02  2.942E+02
  9.922E-02  0.000E+00  1.013E+05 -3.373E-01  6.500E-02  3.000E+02  2.941E+02
  9.922E-02  3.156E-03  1.013E+05 -3.373E-01  1.027E+00  3.000E+02  2.941E+02
  9.922E-02  9.469E-03  1.013E+05 -2.037E-01  1.333E+00  3.000E+02  2.941E+02
  9.922E-02  1.578E-02  1.013E+05 -1.272E-01  1.766E+00  3.000E+02  2.941E+02
  9.922E-02  2.209E-02  1.013E+05 -6.879E-02  2.034E+00  3.000E+02  2.942E+02
  9.922E-02  2.841E-02  1.013E+05 -2.274E-02  2.156E+00  3.000E+02  2.942E+02
  9.922E-02  3.472E-02  1.013E+05  1.557E-02  2.195E+00  3.000E+02  2.942E+02
  9.922E-02  4.103E-02  1.013E+05  4.904E-02  2.195E+00  3.000E+02  2.942E+02
  9.922E-02  4.734E-02  1.013E+05  7.771E-02  2.172E+00  3.000E+02  2.942E+02
  9.922E-02  5.366E-02  1.013E+05  1.011E-01  2.132E+00  3.000E+02  2.942E+02
  9.922E-02  5.997E-02  1.013E+05  1.195E-01  2.081E+00  3.000E+02  2.942E+02
  9.922E-02  6.628E-02  1.013E+05  1.331E-01  2.022E+00  3.000E+02  2.943E+02
  9.922E-02  7.259E-02  1.013E+05  1.417E-01  1.962E+00  3.000E+02  2.943E+02
  9.922E-02  7.891E-02  1.013E+05  1.457E-01  1.909E+00  3.000E+02  2.943E+02
  9.922E-02  8.522E-02  1.013E+05  1.453E-01  1.866E+00  3.000E+02  2.943E+02
  9.922E-02  9.153E-02  1.013E+05  1.406E-01  1.827E+00  3.000E+02  2.943E+02
  9.922E-02  9.784E-02  1.013E+05  1.324E-01  1.793E+00  3.000E+02  2.943E+02
  9.922E-02  1.042E-01  1.013E+05  1.213E-01  1.763E+00  3.000E+02  2.943E+02
  9.922E-02  1.105E-01  1.013E+05  1.080E-01  1.738E+00  3.000E+02  2.943E+02
  9.922E-02  1.168E-01  1.013E+05  9.315E-02  1.714E+00  3.000E+02  2.943E+02
  9.922E-02  1.231E-01  1.013E+05  7.721E-02  1.693E+00  3.000E+02  2.943E+02
  9.922E-02  1.294E-01  1.013E+05  5.968E-02  1.666E+00  3.000E+02  2.943E+02
  9.922E-02  1.357E-01  1.013E+05  4.018E-02  1.630E+00  3.000E+02  2.943E+02
  9.922E-02  1.420E-01  1.013E+05  1.913E-02  1.590E+00  3.000E+02  2.943E+02
  9.922E-02  1.483E-01  1.013E+05 -2.787E-03  1.545E+00  3.000E+02  2.943E+02
  9.922E-02  1.547E-01  1.013E+05 -2.533E-02  1.497E+00  3.000E+02  2.943E+02
  9.922E-02  1.610E-01  1.013E+05 -4.806E-02  1.445E+00  3.000E+02  2.943E+02
  9.922E-02  1.673E-01  1.013E+05 -7.056E-02  1.392E+00  3.000E+02  2.943E+02
  9.922E-02  1.736E-01  1.013E+05 -9.241E-02  1.339E+00  3.000E+02  2.943E+02
  9.922E-02  1.799E-01  1.013E+05 -1.134E-01  1.285E+00  3.000E+02  2.943E+02
  9.922E-02  1.862E-01  1.013E+05 -1.334E-01  1.230E+00  3.000E+02  2.943E+02
  9.922E-02  1.925E-01  1.013E+05 -1.521E-01  1.175E+00  3.000E+02  2.943E+02
  9.922E-02  1.988E-01  1.013E+05 -1.695E-01  1.120E+00  3.000E+02  2.943E+02
  9.922E-02  2.052E-01  1.013E+05 -1.863E-01  1.065E+00  3.000E+02  2.943E+02
  9.922E-02  2.115E-01  1.013E+05 -2.027E-01  1.012E+00  3.000E+02  2.943E+02
  9.922E-02  2.178E-01  1.013E+05 -2.185E-01  9.607E-01  3.000E+02  2.943E+02
  9.922E-02  2.241E-01  1.013E+05 -2.332E-01  9.098E-01  3.000E+02  2.943E+02
  9.922E-02  2.304E-01  1.013E+05 -2.472E-01  8.610E-01  3.000E+02  2.943E+02
  9.922E-02  2.367E-01  1.013E+05 -2.610E-01  8.154E-01  3.000E+02  2.943E+02
  9.922E-02  2.430E-01  1.013E+05 -2.736E-01  7.739E-01  3.000E+02  2.943E+02
  9.922E-02  2.493E-01  1.013E+05 -2.854E-01  7.347E-01  3.000E+02  2.943E+02
  9.922E-02  2.557E-01  1.013E+05 -2.965E-01  6.980E-01  3.000E+02  2.943E+02
  9.922E-02  2.620E-01  1.013E+05 -3.074E-01  6.661E-01  3.000E+02  2.943E+02
  9.922E-02  2.683E-01  1.013E+05 -3.182E-01  6.376E-01  3.000E+02  2.943E+02
  9.922E-02  2.746E-01  1.013E+05 -3.299E-01  6.123E-01  3.000E+02  2.943E+02
  9.922E-02  2.809E-01  1.013E+05 -3.429E-01  5.948E-01  3.000E+02  2.943E+02
  9.922E-02  2.872E-01  1.013E+05 -3.571E-01  5.849E-01  3.000E+02  2.943E+02
  9.922E-02  2.935E-01  1.013E+05 -3.705E-01  5.767E-01  3.000E+02  2.943E+02
  9.922E-02  2.998E-01  1.013E+05 -3.830E-01  5.699E-01  3.000E+02  2.943E+02
  9.922E-02  3.062E-01  1.013E+05 -3.936E-01  5.680E-01  3.000E+02  2.943E+02
  9.922E-02  3.125E-01  1.013E+05 -4.017E-01  5.667E-01  3.000E+02  2.943E+02
  9.922E-02  3.188E-01  1.013E+05 -4.072E-01  5.613E-01  3.000E+02  2.943E+02
  9.922E-02  3.251E-01  1.013E+05 -4.106E-01  5.553E-01  3.000E+02  2.943E+02
  9.922E-02  3.314E-01  1.013E+05 -4.119E-01  5.528E-01  3.000E+02  2.943E+02
  9.922E-02  3.377E-01  1.013E+05 -4.102E-01  5.431E-01  3.000E+02  2.943E+02