VARIABLES="XP","YP","P","U","V","TS","TF"
ZONE T="Zone 001"I=    82 J=    12 F=POINT
  0.000E+00  0.000E+00  1.020E+05  0.000E+00  0.000E+00  2.930E+02  2.930E+02
  0.000E+00  3.156E-03  1.020E+05  0.000E+00  0.000E+00  2.930E+02  2.930E+02
  0.000E+00  9.469E-03  1.020E+05  0.000E+00  0.000E+00  2.930E+02  2.930E+02
  0.000E+00  1.578E-02  1.020E+05  0.000E+00  0.000E+00  2.931E+02  2.931E+02
  0.000E+00  2.209E-02  1.020E+05  0.000E+00  0.000E+00  2.932E+02  2.932E+02
  0.000E+00  2.841E-02  1.020E+05  0.000E+00  0.000E+00  2.933E+02  2.933E+02
  0.000E+00  3.472E-02  1.020E+05  0.000E+00  0.000E+00  2.935E+02  2.935E+02
  0.000E+00  4.103E-02  1.019E+05  0.000E+00  0.000E+00  2.938E+02  2.938E+02
  0.000E+00  4.734E-02  1.019E+05  0.000E+00  0.000E+00  2.943E+02  2.943E+02
  0.000E+00  5.366E-02  1.019E+05  0.000E+00  0.000E+00  2.951E+02  2.950E+02
  0.000E+00  5.997E-02  1.019E+05  0.000E+00  0.000E+00  2.963E+02  2.962E+02
  0.000E+00  6.628E-02  1.019E+05  0.000E+00  0.000E+00  2.981E+02  2.979E+02
  0.000E+00  7.259E-02  1.019E+05  0.000E+00  0.000E+00  3.009E+02  3.005E+02
  0.000E+00  7.891E-02  1.019E+05  0.000E+00  0.000E+00  3.049E+02  3.043E+02
  0.000E+00  8.522E-02  1.019E+05  0.000E+00  0.000E+00  3.108E+02  3.099E+02
  0.000E+00  9.153E-02  1.019E+05  0.000E+00  0.000E+00  3.193E+02  3.180E+02
  0.000E+00  9.784E-02  1.019E+05  0.000E+00  0.000E+00  3.309E+02  3.292E+02
  0.000E+00  1.042E-01  1.019E+05  0.000E+00  0.000E+00  3.461E+02  3.439E+02
  0.000E+00  1.105E-01  1.019E+05  0.000E+00  0.000E+00  3.646E+02  3.619E+02
  0.000E+00  1.168E-01  1.018E+05  0.000E+00  0.000E+00  3.856E+02  3.826E+02
  0.000E+00  1.231E-01  1.018E+05  0.000E+00  0.000E+00  4.077E+02  4.045E+02
  0.000E+00  1.294E-01  1.018E+05  0.000E+00  0.000E+00  4.290E+02  4.260E+02
  0.000E+00  1.357E-01  1.018E+05  0.000E+00  0.000E+00  4.478E+02  4.452E+02
  0.000E+00  1.420E-01  1.018E+05  0.000E+00  0.000E+00  4.626E+02  4.605E+02
  0.000E+00  1.483E-01  1.018E+05  0.000E+00  0.000E+00  4.722E+02  4.708E+02
  0.000E+00  1.547E-01  1.018E+05  0.000E+00  0.000E+00  4.762E+02  4.756E+02
  0.000E+00  1.610E-01  1.018E+05  0.000E+00  0.000E+00  4.747E+02  4.748E+02
  0.000E+00  1.673E-01  1.018E+05  0.000E+00  0.000E+00  4.682E+02  4.689E+02
  0.000E+00  1.736E-01  1.018E+05  0.000E+00  0.000E+00  4.575E+02  4.589E+02
  0.000E+00  1.799E-01  1.017E+05  0.000E+00  0.000E+00  4.438E+02  4.456E+02
  0.000E+00  1.862E-01  1.017E+05  0.000E+00  0.000E+00  4.282E+02  4.304E+02
  0.000E+00  1.925E-01  1.017E+05  0.000E+00  0.000E+00  4.118E+02  4.141E+02
  0.000E+00  1.988E-01  1.017E+05  0.000E+00  0.000E+00  3.953E+02  3.977E+02
  0.000E+00  2.052E-01  1.017E+05  0.000E+00  0.000E+00  3.796E+02  3.819E+02
  0.000E+00  2.115E-01  1.017E+05  0.000E+00  0.000E+00  3.651E+02  3.673E+02
  0.000E+00  2.178E-01  1.017E+05  0.000E+00  0.000E+00  3.521E+02  3.542E+02
  0.000E+00  2.241E-01  1.017E+05  0.000E+00  0.000E+00  3.408E+02  3.426E+02
  0.000E+00  2.304E-01  1.017E+05  0.000E+00  0.000E+00  3.311E+02  3.327E+02
  0.000E+00  2.367E-01  1.017E+05  0.000E+00  0.000E+00  3.230E+02  3.244E+02
  0.000E+00  2.430E-01  1.017E+05  0.000E+00  0.000E+00  3.164E+02  3.175E+02
  0.000E+00  2.493E-01  1.016E+05  0.000E+00  0.000E+00  3.110E+02  3.119E+02
  0.000E+00  2.557E-01  1.016E+05  0.000E+00  0.000E+00  3.067E+02  3.075E+02
  0.000E+00  2.620E-01  1.016E+05  0.000E+00  0.000E+00  3.034E+02  3.040E+02
  0.000E+00  2.683E-01  1.016E+05  0.000E+00  0.000E+00  3.008E+02  3.013E+02
  0.000E+00  2.746E-01  1.016E+05  0.000E+00  0.000E+00  2.988E+02  2.992E+02
  0.000E+00  2.809E-01  1.016E+05  0.000E+00  0.000E+00  2.974E+02  2.976E+02
  0.000E+00  2.872E-01  1.016E+05  0.000E+00  0.000E+00  2.962E+02  2.964E+02
  0.000E+00  2.935E-01  1.016E+05  0.000E+00  0.000E+00  2.954E+02  2.956E+02
  0.000E+00  2.998E-01  1.016E+05  0.000E+00  0.000E+00  2.948E+02  2.949E+02
  0.000E+00  3.062E-01  1.016E+05  0.000E+00  0.000E+00  2.944E+02  2.944E+02
  0.000E+00  3.125E-01  1.016E+05  0.000E+00  0.000E+00  2.940E+02  2.941E+02
  0.000E+00  3.188E-01  1.016E+05  0.000E+00  0.000E+00  2.938E+02  2.938E+02
  0.000E+00  3.251E-01  1.015E+05  0.000E+00  0.000E+00  2.936E+02  2.937E+02
  0.000E+00  3.314E-01  1.015E+05  0.000E+00  0.000E+00  2.935E+02  2.935E+02
  0.000E+00  3.377E-01  1.015E+05  0.000E+00  0.000E+00  2.934E+02  2.934E+02
  0.000E+00  3.440E-01  1.015E+05  0.000E+00  0.000E+00  2.933E+02  2.934E+02
  0.000E+00  3.503E-01  1.015E+05  0.000E+00  0.000E+00  2.933E+02  2.933E+02
  0.000E+00  3.567E-01  1.015E+05  0.000E+00  0.000E+00  2.933E+02  2.933E+02
  0.000E+00  3.630E-01  1.015E+05  0.000E+00  0.000E+00  2.932E+02  2.932E+02
  0.000E+00  3.693E-01  1.015E+05  0.000E+00  0.000E+00  2.932E+02  2.932E+02
  0.000E+00  3.756E-01  1.015E+05  0.000E+00  0.000E+00  2.932E+02  2.932E+02
  0.000E+00  3.819E-01  1.015E+05  0.000E+00  0.000E+00  2.932E+02  2.932E+02
  0.000E+00  3.882E-01  1.015E+05  0.000E+00  0.000E+00  2.931E+02  2.931E+02
  0.000E+00  3.945E-01  1.015E+05  0.000E+00  0.000E+00  2.931E+02  2.931E+02
  0.000E+00  4.008E-01  1.015E+05  0.000E+00  0.000E+00  2.931E+02  2.931E+02
  0.000E+00  4.072E-01  1.014E+05  0.000E+00  0.000E+00  2.931E+02  2.931E+02
  0.000E+00  4.135E-01  1.014E+05  0.000E+00  0.000E+00  2.931E+02  2.931E+02
  0.000E+00  4.198E-01  1.014E+05  0.000E+00  0.000E+00  2.931E+02  2.931E+02
  0.000E+00  4.261E-01  1.014E+05  0.000E+00  0.000E+00  2.931E+02  2.931E+02
  0.000E+00  4.324E-01  1.014E+05  0.000E+00  0.000E+00  2.931E+02  2.931E+02
  0.000E+00  4.387E-01  1.014E+05  0.000E+00  0.000E+00  2.931E+02  2.931E+02
  0.000E+00  4.450E-01  1.014E+05  0.000E+00  0.000E+00  2.931E+02  2.931E+02
  0.000E+00  4.513E-01  1.014E+05  0.000E+00  0.000E+00  2.930E+02  2.930E+02
  0.000E+00  4.577E-01  1.014E+05  0.000E+00  0.000E+00  2.930E+02  2.930E+02
  0.000E+00  4.640E-01  1.014E+05  0.000E+00  0.000E+00  2.930E+02  2.930E+02
  0.000E+00  4.703E-01  1.014E+05  0.000E+00  0.000E+00  2.930E+02  2.930E+02
  0.000E+00  4.766E-01  1.014E+05  0.000E+00  0.000E+00  2.930E+02  2.930E+02
  0.000E+00  4.829E-01  1.014E+05  0.000E+00  0.000E+00  2.930E+02  2.930E+02
  0.000E+00  4.892E-01  1.013E+05  0.000E+00  0.000E+00  2.930E+02  2.930E+02
  0.000E+00  4.955E-01  1.013E+05  0.000E+00  0.000E+00  2.930E+02  2.930E+02
  0.000E+00  5.018E-01  1.013E+05  0.000E+00  0.000E+00  2.930E+02  2.930E+02
  0.000E+00  5.050E-01  1.013E+05  0.000E+00  0.000E+00  2.930E+02  2.930E+02
  1.417E-02  0.000E+00  1.020E+05 -8.426E-09  6.500E-02  2.930E+02  2.930E+02
  1.417E-02  3.156E-03  1.020E+05 -8.426E-09  6.500E-02  2.930E+02  2.930E+02
  1.417E-02  9.469E-03  1.020E+05 -5.755E-09  6.500E-02  2.930E+02  2.930E+02
  1.417E-02  1.578E-02  1.020E+05 -2.294E-07  6.501E-02  2.931E+02  2.931E+02
  1.417E-02  2.209E-02  1.020E+05  5.165E-07  6.501E-02  2.932E+02  2.932E+02
  1.417E-02  2.841E-02  1.020E+05  8.523E-06  6.501E-02  2.933E+02  2.933E+02
  1.417E-02  3.472E-02  1.020E+05  1.098E-06  6.501E-02  2.935E+02  2.935E+02
  1.417E-02  4.103E-02  1.019E+05  8.390E-06  6.502E-02  2.938E+02  2.938E+02
  1.417E-02  4.734E-02  1.019E+05  1.229E-06  6.504E-02  2.943E+02  2.943E+02
  1.417E-02  5.366E-02  1.019E+05  8.709E-06  6.506E-02  2.951E+02  2.950E+02
  1.417E-02  5.997E-02  1.019E+05  7.240E-07  6.510E-02  2.963E+02  2.962E+02
  1.417E-02  6.628E-02  1.019E+05 -1.044E-07  6.515E-02  2.981E+02  2.979E+02
  1.417E-02  7.259E-02  1.019E+05  2.294E-07  6.521E-02  3.009E+02  3.005E+02
  1.417E-02  7.891E-02  1.019E+05  3.659E-07  6.531E-02  3.049E+02  3.043E+02
  1.417E-02  8.522E-02  1.019E+05  5.153E-07  6.547E-02  3.108E+02  3.099E+02
  1.417E-02  9.153E-02  1.019E+05  4.870E-07  6.566E-02  3.193E+02  3.180E+02
  1.417E-02  9.784E-02  1.019E+05  4.538E-07  6.586E-02  3.309E+02  3.292E+02
  1.417E-02  1.042E-01  1.019E+05  3.897E-07  6.600E-02  3.461E+02  3.439E+02
  1.417E-02  1.105E-01  1.019E+05  3.100E-07  6.617E-02  3.646E+02  3.619E+02
  1.417E-02  1.168E-01  1.018E+05  2.151E-07  6.618E-02  3.856E+02  3.826E+02
  1.417E-02  1.231E-01  1.018E+05  9.542E-08  6.613E-02  4.077E+02  4.045E+02
  1.417E-02  1.294E-01  1.018E+05  1.046E-07  6.598E-02  4.290E+02  4.260E+02
  1.417E-02  1.357E-01  1.018E+05 -5.749E-07  6.575E-02  4.478E+02  4.452E+02
  1.417E-02  1.420E-01  1.018E+05 -7.381E-06  6.552E-02  4.626E+02  4.605E+02
  1.417E-02  1.483E-01  1.018E+05 -7.403E-06  6.526E-02  4.722E+02  4.708E+02
  1.417E-02  1.547E-01  1.018E+05 -7.475E-07  6.500E-02  4.762E+02  4.756E+02
  1.417E-02  1.610E-01  1.018E+05 -2.140E-07  6.478E-02  4.747E+02  4.748E+02
  1.417E-02  1.673E-01  1.018E+05 -3.575E-07  6.458E-02  4.682E+02  4.689E+02
  1.417E-02  1.736E-01  1.018E+05 -3.632E-07  6.440E-02  4.575E+02  4.589E+02
  1.417E-02  1.799E-01  1.017E+05 -3.671E-07  6.427E-02  4.438E+02  4.456E+02
  1.417E-02  1.862E-01  1.017E+05 -3.508E-07  6.419E-02  4.282E+02  4.304E+02
  1.417E-02  1.925E-01  1.017E+05 -3.257E-07  6.412E-02  4.118E+02  4.141E+02
  1.417E-02  1.988E-01  1.017E+05 -3.004E-07  6.411E-02  3.953E+02  3.977E+02
  1.417E-02  2.052E-01  1.017E+05 -2.881E-07  6.415E-02  3.796E+02  3.819E+02
  1.417E-02  2.115E-01  1.017E+05 -2.660E-07  6.420E-02  3.651E+02  3.673E+02
  1.417E-02  2.178E-01  1.017E+05 -4.343E-07  6.424E-02  3.521E+02  3.542E+02
  1.417E-02  2.241E-01  1.017E+05  3.881E-07  6.435E-02  3.408E+02  3.426E+02
  1.417E-02  2.304E-01  1.017E+05  8.159E-06  6.445E-02  3.311E+02  3.327E+02
  1.417E-02  2.367E-01  1.017E+05  5.300E-07  6.453E-02  3.230E+02  3.244E+02
  1.417E-02  2.430E-01  1.017E+05 -3.193E-07  6.461E-02  3.164E+02  3.175E+02
  1.417E-02  2.493E-01  1.016E+05 -8.224E-08  6.469E-02  3.110E+02  3.119E+02
  1.417E-02  2.557E-01  1.016E+05 -5.012E-08  6.476E-02  3.067E+02  3.075E+02
  1.417E-02  2.620E-01  1.016E+05 -8.101E-09  6.481E-02  3.034E+02  3.040E+02
  1.417E-02  2.683E-01  1.016E+05  3.517E-08  6.484E-02  3.008E+02  3.013E+02
  1.417E-02  2.746E-01  1.016E+05  3.062E-08  6.488E-02  2.988E+02  2.992E+02
  1.417E-02  2.809E-01  1.016E+05  3.247E-08  6.491E-02  2.974E+02  2.976E+02
  1.417E-02  2.872E-01  1.016E+05  2.768E-08  6.494E-02  2.962E+02  2.964E+02
  1.417E-02  2.935E-01  1.016E+05  2.322E-08  6.496E-02  2.954E+02  2.956E+02
  1.417E-02  2.998E-01  1.016E+05  1.855E-08  6.496E-02  2.948E+02  2.949E+02
  1.417E-02  3.062E-01  1.016E+05  1.425E-08  6.496E-02  2.944E+02  2.944E+02
  1.417E-02  3.125E-01  1.016E+05  1.059E-08  6.497E-02  2.940E+02  2.941E+02
  1.417E-02  3.188E-01  1.016E+05  7.691E-09  6.499E-02  2.938E+02  2.938E+02
  1.417E-02  3.251E-01  1.015E+05  5.565E-09  6.499E-02  2.936E+02  2.937E+02
  1.417E-02  3.314E-01  1.015E+05  4.192E-09  6.499E-02  2.935E+02  2.935E+02
  1.417E-02  3.377E-01  1.015E+05  3.499E-09  6.500E-02  2.934E+02  2.934E+02
  1.417E-02  3.440E-01  1.015E+05  3.371E-09  6.500E-02  2.933E+02  2.934E+02
  1.417E-02  3.503E-01  1.015E+05  3.523E-09  6.500E-02  2.933E+02  2.933E+02
  1.417E-02  3.567E-01  1.015E+05  4.197E-09  6.500E-02  2.933E+02  2.933E+02
  1.417E-02  3.630E-01  1.015E+05  4.105E-09  6.499E-02  2.932E+02  2.932E+02
  1.417E-02  3.693E-01  1.015E+05  4.333E-09  6.499E-02  2.932E+02  2.932E+02
  1.417E-02  3.756E-01  1.015E+05  4.463E-09  6.500E-02  2.932E+02  2.932E+02
  1.417E-02  3.819E-01  1.015E+05  4.628E-09  6.501E-02  2.932E+02  2.932E+02
  1.417E-02  3.882E-01  1.015E+05  4.750E-09  6.500E-02  2.931E+02  2.931E+02
  1.417E-02  3.945E-01  1.015E+05  4.817E-09  6.499E-02  2.931E+02  2.931E+02
  1.417E-02  4.008E-01  1.015E+05  4.864E-09  6.500E-02  2.931E+02  2.931E+02
  1.417E-02  4.072E-01  1.014E+05  4.889E-09  6.500E-02  2.931E+02  2.931E+02
  1.417E-02  4.135E-01  1.014E+05  4.880E-09  6.500E-02  2.931E+02  2.931E+02
  1.417E-02  4.198E-01  1.014E+05  4.876E-09  6.500E-02  2.931E+02  2.931E+02
  1.417E-02  4.261E-01  1.014E+05  4.854E-09  6.500E-02  2.931E+02  2.931E+02
  1.417E-02  4.324E-01  1.014E+05  4.801E-09  6.500E-02  2.931E+02  2.931E+02
  1.417E-02  4.387E-01  1.014E+05  4.697E-09  6.500E-02  2.931E+02  2.931E+02
  1.417E-02  4.450E-01  1.014E+05  4.508E-09  6.500E-02  2.931E+02  2.931E+02
  1.417E-02  4.513E-01  1.014E+05  4.254E-09  6.500E-02  2.930E+02  2.930E+02
  1.417E-02  4.577E-01  1.014E+05  3.939E-09  6.500E-02  2.930E+02  2.930E+02
  1.417E-02  4.640E-01  1.014E+05  3.598E-09  6.500E-02  2.930E+02  2.930E+02
  1.417E-02  4.703E-01  1.014E+05  3.219E-09  6.500E-02  2.930E+02  2.930E+02
  1.417E-02  4.766E-01  1.014E+05  2.782E-09  6.500E-02  2.930E+02  2.930E+02
  1.417E-02  4.829E-01  1.014E+05  2.339E-09  6.500E-02  2.930E+02  2.930E+02
  1.417E-02  4.892E-01  1.013E+05  1.874E-09  6.499E-02  2.930E+02  2.930E+02
  1.417E-02  4.955E-01  1.013E+05  1.314E-09  6.499E-02  2.930E+02  2.930E+02
  1.417E-02  5.018E-01  1.013E+05  9.759E-10  6.500E-02  2.930E+02  2.930E+02
  1.417E-02  5.050E-01  1.013E+05  9.759E-10  6.500E-02  2.930E+02  2.930E+02
  4.252E-02  0.000E+00  1.020E+05 -9.312E-08  6.500E-02  2.930E+02  2.930E+02
  4.252E-02  3.156E-03  1.020E+05 -9.312E-08  6.500E-02  2.930E+02  2.930E+02
  4.252E-02  9.469E-03  1.020E+05  8.622E-07  6.500E-02  2.930E+02  2.930E+02
  4.252E-02  1.578E-02  1.020E+05  2.147E-06  6.501E-02  2.931E+02  2.931E+02
  4.252E-02  2.209E-02  1.020E+05  9.397E-07  6.502E-02  2.932E+02  2.932E+02
  4.252E-02  2.841E-02  1.020E+05 -1.917E-07  6.502E-02  2.933E+02  2.933E+02
  4.252E-02  3.472E-02  1.020E+05  9.372E-07  6.501E-02  2.935E+02  2.935E+02
  4.252E-02  4.103E-02  1.019E+05  2.006E-06  6.502E-02  2.938E+02  2.938E+02
  4.252E-02  4.734E-02  1.019E+05  1.743E-06  6.504E-02  2.943E+02  2.943E+02
  4.252E-02  5.366E-02  1.019E+05  2.079E-06  6.506E-02  2.951E+02  2.950E+02
  4.252E-02  5.997E-02  1.019E+05  1.064E-06  6.510E-02  2.963E+02  2.962E+02
  4.252E-02  6.628E-02  1.019E+05  1.493E-07  6.515E-02  2.981E+02  2.979E+02
  4.252E-02  7.259E-02  1.019E+05  4.112E-07  6.521E-02  3.009E+02  3.005E+02
  4.252E-02  7.891E-02  1.019E+05  4.931E-07  6.532E-02  3.049E+02  3.043E+02
  4.252E-02  8.522E-02  1.019E+05  5.901E-07  6.547E-02  3.108E+02  3.099E+02
  4.252E-02  9.153E-02  1.019E+05  5.707E-07  6.566E-02  3.192E+02  3.180E+02
  4.252E-02  9.784E-02  1.019E+05  5.425E-07  6.587E-02  3.309E+02  3.292E+02
  4.252E-02  1.042E-01  1.019E+05  4.930E-07  6.601E-02  3.460E+02  3.438E+02
  4.252E-02  1.105E-01  1.019E+05  4.273E-07  6.618E-02  3.645E+02  3.619E+02
  4.252E-02  1.168E-01  1.018E+05  3.656E-07  6.619E-02  3.855E+02  3.825E+02
  4.252E-02  1.231E-01  1.018E+05  2.672E-07  6.613E-02  4.076E+02  4.045E+02
  4.252E-02  1.294E-01  1.018E+05  3.011E-07  6.599E-02  4.290E+02  4.259E+02
  4.252E-02  1.357E-01  1.018E+05 -3.710E-07  6.575E-02  4.478E+02  4.451E+02
  4.252E-02  1.420E-01  1.018E+05 -2.054E-06  6.552E-02  4.625E+02  4.604E+02
  4.252E-02  1.483E-01  1.018E+05 -2.147E-06  6.527E-02  4.722E+02  4.707E+02
  4.252E-02  1.547E-01  1.018E+05 -6.217E-07  6.502E-02  4.762E+02  4.755E+02
  4.252E-02  1.610E-01  1.018E+05 -1.302E-07  6.478E-02  4.747E+02  4.747E+02
  4.252E-02  1.673E-01  1.018E+05 -3.020E-07  6.458E-02  4.681E+02  4.689E+02
  4.252E-02  1.736E-01  1.018E+05 -3.382E-07  6.440E-02  4.575E+02  4.588E+02
  4.252E-02  1.799E-01  1.017E+05 -3.743E-07  6.427E-02  4.438E+02  4.456E+02
  4.252E-02  1.862E-01  1.017E+05 -3.892E-07  6.419E-02  4.282E+02  4.304E+02
  4.252E-02  1.925E-01  1.017E+05 -3.891E-07  6.412E-02  4.118E+02  4.141E+02
  4.252E-02  1.988E-01  1.017E+05 -3.835E-07  6.411E-02  3.953E+02  3.977E+02
  4.252E-02  2.052E-01  1.017E+05 -3.768E-07  6.415E-02  3.796E+02  3.820E+02
  4.252E-02  2.115E-01  1.017E+05 -3.732E-07  6.419E-02  3.651E+02  3.673E+02
  4.252E-02  2.178E-01  1.017E+05 -3.695E-07  6.424E-02  3.522E+02  3.542E+02
  4.252E-02  2.241E-01  1.017E+05 -3.825E-07  6.435E-02  3.408E+02  3.426E+02
  4.252E-02  2.304E-01  1.017E+05 -4.097E-07  6.444E-02  3.311E+02  3.327E+02
  4.252E-02  2.367E-01  1.017E+05 -3.605E-07  6.452E-02  3.230E+02  3.244E+02
  4.252E-02  2.430E-01  1.017E+05 -2.960E-07  6.461E-02  3.164E+02  3.175E+02
  4.252E-02  2.493E-01  1.016E+05 -2.320E-07  6.469E-02  3.110E+02  3.119E+02
  4.252E-02  2.557E-01  1.016E+05 -1.949E-07  6.476E-02  3.068E+02  3.075E+02
  4.252E-02  2.620E-01  1.016E+05 -1.863E-07  6.481E-02  3.034E+02  3.040E+02
  4.252E-02  2.683E-01  1.016E+05 -1.622E-07  6.484E-02  3.008E+02  3.013E+02
  4.252E-02  2.746E-01  1.016E+05 -1.383E-07  6.488E-02  2.988E+02  2.992E+02
  4.252E-02  2.809E-01  1.016E+05 -9.740E-08  6.491E-02  2.974E+02  2.976E+02
  4.252E-02  2.872E-01  1.016E+05 -7.799E-08  6.494E-02  2.962E+02  2.964E+02
  4.252E-02  2.935E-01  1.016E+05 -6.245E-08  6.496E-02  2.954E+02  2.956E+02
  4.252E-02  2.998E-01  1.016E+05 -5.228E-08  6.496E-02  2.948E+02  2.949E+02
  4.252E-02  3.062E-01  1.016E+05 -4.478E-08  6.496E-02  2.944E+02  2.944E+02
  4.252E-02  3.125E-01  1.016E+05 -3.919E-08  6.497E-02  2.940E+02  2.941E+02
  4.252E-02  3.188E-01  1.016E+05 -3.441E-08  6.499E-02  2.938E+02  2.938E+02
  4.252E-02  3.251E-01  1.015E+05 -3.077E-08  6.499E-02  2.936E+02  2.937E+02
  4.252E-02  3.314E-01  1.015E+05 -2.715E-08  6.499E-02  2.935E+02  2.935E+02
  4.252E-02  3.377E-01  1.015E+05 -2.368E-08  6.500E-02  2.934E+02  2.934E+02
  4.252E-02  3.440E-01  1.015E+05 -2.009E-08  6.500E-02  2.933E+02  2.934E+02
  4.252E-02  3.503E-01  1.015E+05 -1.677E-08  6.500E-02  2.933E+02  2.933E+02
  4.252E-02  3.567E-01  1.015E+05 -1.254E-08  6.500E-02  2.933E+02  2.933E+02
  4.252E-02  3.630E-01  1.015E+05 -1.037E-08  6.499E-02  2.932E+02  2.932E+02
  4.252E-02  3.693E-01  1.015E+05 -7.402E-09  6.499E-02  2.932E+02  2.932E+02
  4.252E-02  3.756E-01  1.015E+05 -4.876E-09  6.501E-02  2.932E+02  2.932E+02
  4.252E-02  3.819E-01  1.015E+05 -2.489E-09  6.501E-02  2.932E+02  2.932E+02
  4.252E-02  3.882E-01  1.015E+05 -3.791E-10  6.500E-02  2.931E+02  2.931E+02
  4.252E-02  3.945E-01  1.015E+05  1.444E-09  6.500E-02  2.931E+02  2.931E+02
  4.252E-02  4.008E-01  1.015E+05  3.007E-09  6.500E-02  2.931E+02  2.931E+02
  4.252E-02  4.072E-01  1.014E+05  4.281E-09  6.500E-02  2.931E+02  2.931E+02
  4.252E-02  4.135E-01  1.014E+05  5.278E-09  6.500E-02  2.931E+02  2.931E+02
  4.252E-02  4.198E-01  1.014E+05  6.029E-09  6.500E-02  2.931E+02  2.931E+02
  4.252E-02  4.261E-01  1.014E+05  6.556E-09  6.500E-02  2.931E+02  2.931E+02
  4.252E-02  4.324E-01  1.014E+05  6.909E-09  6.500E-02  2.931E+02  2.931E+02
  4.252E-02  4.387E-01  1.014E+05  7.074E-09  6.500E-02  2.931E+02  2.931E+02
  4.252E-02  4.450E-01  1.014E+05  7.057E-09  6.500E-02  2.931E+02  2.931E+02
  4.252E-02  4.513E-01  1.014E+05  6.867E-09  6.500E-02  2.930E+02  2.931E+02
  4.252E-02  4.577E-01  1.014E+05  6.526E-09  6.500E-02  2.930E+02  2.930E+02
  4.252E-02  4.640E-01  1.014E+05  6.079E-09  6.500E-02  2.930E+02  2.930E+02
  4.252E-02  4.703E-01  1.014E+05  5.524E-09  6.500E-02  2.930E+02  2.930E+02
  4.252E-02  4.766E-01  1.014E+05  4.858E-09  6.500E-02  2.930E+02  2.930E+02
  4.252E-02  4.829E-01  1.014E+05  4.114E-09  6.500E-02  2.930E+02  2.930E+02
  4.252E-02  4.892E-01  1.013E+05  3.311E-09  6.499E-02  2.930E+02  2.930E+02
  4.252E-02  4.955E-01  1.013E+05  2.343E-09  6.499E-02  2.930E+02  2.930E+02
  4.252E-02  5.018E-01  1.013E+05  1.751E-09  6.500E-02  2.930E+02  2.930E+02
  4.252E-02  5.050E-01  1.013E+05  1.751E-09  6.500E-02  2.930E+02  2.930E+02
  7.087E-02  0.000E+00  1.020E+05  4.109E-07  6.500E-02  2.930E+02  2.930E+02
  7.087E-02  3.156E-03  1.020E+05  4.109E-07  6.501E-02  2.930E+02  2.930E+02
  7.087E-02  9.469E-03  1.020E+05  4.639E-07  6.501E-02  2.930E+02  2.930E+02
  7.087E-02  1.578E-02  1.020E+05  5.196E-07  6.501E-02  2.931E+02  2.931E+02
  7.087E-02  2.209E-02  1.020E+05  5.159E-07  6.500E-02  2.932E+02  2.932E+02
  7.087E-02  2.841E-02  1.020E+05  4.836E-07  6.501E-02  2.933E+02  2.933E+02
  7.087E-02  3.472E-02  1.020E+05  5.152E-07  6.502E-02  2.935E+02  2.935E+02
  7.087E-02  4.103E-02  1.019E+05  5.016E-07  6.503E-02  2.938E+02  2.938E+02
  7.087E-02  4.734E-02  1.019E+05  4.925E-07  6.504E-02  2.943E+02  2.943E+02
  7.087E-02  5.366E-02  1.019E+05  4.251E-07  6.506E-02  2.951E+02  2.950E+02
  7.087E-02  5.997E-02  1.019E+05  3.391E-07  6.510E-02  2.963E+02  2.962E+02
  7.087E-02  6.628E-02  1.019E+05  2.288E-07  6.515E-02  2.981E+02  2.979E+02
  7.087E-02  7.259E-02  1.019E+05  1.644E-07  6.521E-02  3.009E+02  3.005E+02
  7.087E-02  7.891E-02  1.019E+05  1.111E-07  6.532E-02  3.049E+02  3.043E+02
  7.087E-02  8.522E-02  1.019E+05  5.888E-08  6.547E-02  3.108E+02  3.099E+02
  7.087E-02  9.153E-02  1.019E+05  7.023E-08  6.566E-02  3.192E+02  3.180E+02
  7.087E-02  9.784E-02  1.019E+05  8.404E-08  6.587E-02  3.309E+02  3.292E+02
  7.087E-02  1.042E-01  1.019E+05  1.190E-07  6.601E-02  3.460E+02  3.438E+02
  7.087E-02  1.105E-01  1.019E+05  1.577E-07  6.618E-02  3.645E+02  3.619E+02
  7.087E-02  1.168E-01  1.018E+05  2.399E-07  6.619E-02  3.856E+02  3.825E+02
  7.087E-02  1.231E-01  1.018E+05  3.040E-07  6.613E-02  4.076E+02  4.045E+02
  7.087E-02  1.294E-01  1.018E+05  2.000E-07  6.599E-02  4.290E+02  4.259E+02
  7.087E-02  1.357E-01  1.018E+05  7.531E-07  6.575E-02  4.478E+02  4.451E+02
  7.087E-02  1.420E-01  1.018E+05  2.314E-06  6.552E-02  4.625E+02  4.604E+02
  7.087E-02  1.483E-01  1.018E+05  2.280E-06  6.527E-02  4.722E+02  4.708E+02
  7.087E-02  1.547E-01  1.018E+05  6.772E-07  6.502E-02  4.762E+02  4.755E+02
  7.087E-02  1.610E-01  1.018E+05  1.022E-07  6.478E-02  4.747E+02  4.747E+02
  7.087E-02  1.673E-01  1.018E+05  1.982E-07  6.458E-02  4.681E+02  4.689E+02
  7.087E-02  1.736E-01  1.018E+05  1.607E-07  6.440E-02  4.575E+02  4.588E+02
  7.087E-02  1.799E-01  1.017E+05  1.230E-07  6.427E-02  4.438E+02  4.456E+02
  7.087E-02  1.862E-01  1.017E+05  7.100E-08  6.419E-02  4.282E+02  4.304E+02
  7.087E-02  1.925E-01  1.017E+05  1.822E-08  6.412E-02  4.118E+02  4.141E+02
  7.087E-02  1.988E-01  1.017E+05 -3.518E-08  6.411E-02  3.953E+02  3.977E+02
  7.087E-02  2.052E-01  1.017E+05 -7.889E-08  6.415E-02  3.796E+02  3.820E+02
  7.087E-02  2.115E-01  1.017E+05 -1.247E-07  6.420E-02  3.651E+02  3.673E+02
  7.087E-02  2.178E-01  1.017E+05 -4.955E-09  6.424E-02  3.521E+02  3.542E+02
  7.087E-02  2.241E-01  1.017E+05 -7.384E-07  6.434E-02  3.408E+02  3.426E+02
  7.087E-02  2.304E-01  1.017E+05 -2.874E-06  6.444E-02  3.311E+02  3.327E+02
  7.087E-02  2.367E-01  1.017E+05 -3.012E-06  6.453E-02  3.230E+02  3.244E+02
  7.087E-02  2.430E-01  1.017E+05 -8.610E-07  6.461E-02  3.164E+02  3.175E+02
  7.087E-02  2.493E-01  1.016E+05 -6.604E-08  6.469E-02  3.110E+02  3.119E+02
  7.087E-02  2.557E-01  1.016E+05 -3.031E-08  6.476E-02  3.068E+02  3.075E+02
  7.087E-02  2.620E-01  1.016E+05 -9.585E-07  6.481E-02  3.034E+02  3.040E+02
  7.087E-02  2.683E-01  1.016E+05 -2.241E-06  6.484E-02  3.008E+02  3.013E+02
  7.087E-02  2.746E-01  1.016E+05 -1.016E-06  6.488E-02  2.988E+02  2.992E+02
  7.087E-02  2.809E-01  1.016E+05 -1.165E-08  6.491E-02  2.974E+02  2.976E+02
  7.087E-02  2.872E-01  1.016E+05 -1.456E-07  6.494E-02  2.962E+02  2.964E+02
  7.087E-02  2.935E-01  1.016E+05 -1.131E-07  6.496E-02  2.954E+02  2.956E+02
  7.087E-02  2.998E-01  1.016E+05 -1.139E-07  6.496E-02  2.948E+02  2.949E+02
  7.087E-02  3.062E-01  1.016E+05 -1.044E-07  6.496E-02  2.944E+02  2.944E+02
  7.087E-02  3.125E-01  1.016E+05 -9.547E-08  6.497E-02  2.940E+02  2.941E+02
  7.087E-02  3.188E-01  1.016E+05 -8.543E-08  6.499E-02  2.938E+02  2.938E+02
  7.087E-02  3.251E-01  1.015E+05 -7.572E-08  6.499E-02  2.936E+02  2.937E+02
  7.087E-02  3.314E-01  1.015E+05 -6.525E-08  6.499E-02  2.935E+02  2.935E+02
  7.087E-02  3.377E-01  1.015E+05 -5.439E-08  6.500E-02  2.934E+02  2.934E+02
  7.087E-02  3.440E-01  1.015E+05 -3.998E-08  6.500E-02  2.933E+02  2.934E+02
  7.087E-02  3.503E-01  1.015E+05 -3.005E-08  6.500E-02  2.933E+02  2.933E+02
  7.087E-02  3.567E-01  1.015E+05  1.601E-08  6.500E-02  2.933E+02  2.933E+02
  7.087E-02  3.630E-01  1.015E+05 -1.816E-08  6.499E-02  2.932E+02  2.932E+02
  7.087E-02  3.693E-01  1.015E+05 -1.632E-08  6.499E-02  2.932E+02  2.932E+02
  7.087E-02  3.756E-01  1.015E+05 -1.872E-08  6.501E-02  2.932E+02  2.932E+02
  7.087E-02  3.819E-01  1.015E+05 -1.754E-08  6.501E-02  2.932E+02  2.932E+02
  7.087E-02  3.882E-01  1.015E+05 -1.578E-08  6.500E-02  2.931E+02  2.931E+02
  7.087E-02  3.945E-01  1.015E+05 -1.353E-08  6.500E-02  2.931E+02  2.931E+02
  7.087E-02  4.008E-01  1.015E+05 -1.124E-08  6.500E-02  2.931E+02  2.931E+02
  7.087E-02  4.072E-01  1.014E+05 -9.068E-09  6.500E-02  2.931E+02  2.931E+02
  7.087E-02  4.135E-01  1.014E+05 -7.029E-09  6.500E-02  2.931E+02  2.931E+02
  7.087E-02  4.198E-01  1.014E+05 -5.162E-09  6.500E-02  2.931E+02  2.931E+02
  7.087E-02  4.261E-01  1.014E+05 -3.564E-09  6.500E-02  2.931E+02  2.931E+02
  7.087E-02  4.324E-01  1.014E+05 -2.229E-09  6.500E-02  2.931E+02  2.931E+02
  7.087E-02  4.387E-01  1.014E+05 -1.115E-09  6.500E-02  2.931E+02  2.931E+02
  7.087E-02  4.450E-01  1.014E+05 -2.113E-10  6.500E-02  2.931E+02  2.931E+02
  7.087E-02  4.513E-01  1.014E+05  4.954E-10  6.500E-02  2.930E+02  2.931E+02
  7.087E-02  4.577E-01  1.014E+05  1.024E-09  6.500E-02  2.930E+02  2.930E+02
  7.087E-02  4.640E-01  1.014E+05  1.362E-09  6.500E-02  2.930E+02  2.930E+02
  7.087E-02  4.703E-01  1.014E+05  1.551E-09  6.500E-02  2.930E+02  2.930E+02
  7.087E-02  4.766E-01  1.014E+05  1.599E-09  6.500E-02  2.930E+02  2.930E+02
  7.087E-02  4.829E-01  1.014E+05  1.524E-09  6.500E-02  2.930E+02  2.930E+02
  7.087E-02  4.892E-01  1.013E+05  1.343E-09  6.499E-02  2.930E+02  2.930E+02
  7.087E-02  4.955E-01  1.013E+05  1.015E-09  6.499E-02  2.930E+02  2.930E+02
  7.087E-02  5.018E-01  1.013E+05  7.909E-10  6.500E-02  2.930E+02  2.930E+02
  7.087E-02  5.050E-01  1.013E+05  7.909E-10  6.500E-02  2.930E+02  2.930E+02
  9.922E-02  0.000E+00  1.020E+05  1.994E-07  6.500E-02  2.930E+02  2.930E+02
  9.922E-02  3.156E-03  1.020E+05  1.994E-07  6.500E-02  2.930E+02  2.930E+02
  9.922E-02  9.469E-03  1.020E+05  2.163E-07  6.500E-02  2.930E+02  2.930E+02
  9.922E-02  1.578E-02  1.020E+05  1.873E-07  6.501E-02  2.931E+02  2.931E+02
  9.922E-02  2.209E-02  1.020E+05  1.914E-07  6.502E-02  2.932E+02  2.932E+02
  9.922E-02  2.841E-02  1.020E+05  1.250E-07  6.502E-02  2.933E+02  2.933E+02
  9.922E-02  3.472E-02  1.020E+05  1.153E-07  6.501E-02  2.935E+02  2.935E+02
  9.922E-02  4.103E-02  1.019E+05  4.098E-08  6.502E-02  2.938E+02  2.938E+02
  9.922E-02  4.734E-02  1.019E+05  5.113E-08  6.504E-02  2.943E+02  2.943E+02
  9.922E-02  5.366E-02  1.019E+05 -1.612E-08  6.506E-02  2.951E+02  2.950E+02
  9.922E-02  5.997E-02  1.019E+05 -2.406E-09  6.510E-02  2.963E+02  2.962E+02
  9.922E-02  6.628E-02  1.019E+05 -2.931E-08  6.515E-02  2.981E+02  2.979E+02
  9.922E-02  7.259E-02  1.019E+05 -5.305E-08  6.521E-02  3.009E+02  3.005E+02
  9.922E-02  7.891E-02  1.019E+05 -7.805E-08  6.532E-02  3.049E+02  3.043E+02
  9.922E-02  8.522E-02  1.019E+05 -9.672E-08  6.547E-02  3.108E+02  3.099E+02
  9.922E-02  9.153E-02  1.019E+05 -1.025E-07  6.566E-02  3.193E+02  3.180E+02
  9.922E-02  9.784E-02  1.019E+05 -9.616E-08  6.587E-02  3.309E+02  3.292E+02
  9.922E-02  1.042E-01  1.019E+05 -3.709E-08  6.601E-02  3.460E+02  3.438E+02
  9.922E-02  1.105E-01  1.019E+05 -1.381E-07  6.618E-02  3.646E+02  3.619E+02
  9.922E-02  1.168E-01  1.018E+05  7.214E-07  6.619E-02  3.856E+02  3.826E+02
  9.922E-02  1.231E-01  1.018E+05  1.755E-06  6.613E-02  4.076E+02  4.045E+02
  9.922E-02  1.294E-01  1.018E+05  7.093E-07  6.599E-02  4.290E+02  4.260E+02
  9.922E-02  1.357E-01  1.018E+05  6.329E-07  6.576E-02  4.478E+02  4.451E+02
  9.922E-02  1.420E-01  1.018E+05  2.446E-06  6.552E-02  4.626E+02  4.605E+02
  9.922E-02  1.483E-01  1.018E+05  2.450E-06  6.526E-02  4.722E+02  4.708E+02
  9.922E-02  1.547E-01  1.018E+05  8.421E-07  6.501E-02  4.762E+02  4.755E+02
  9.922E-02  1.610E-01  1.018E+05  2.546E-07  6.478E-02  4.747E+02  4.747E+02
  9.922E-02  1.673E-01  1.018E+05  3.442E-07  6.458E-02  4.681E+02  4.689E+02
  9.922E-02  1.736E-01  1.018E+05  3.017E-07  6.440E-02  4.575E+02  4.588E+02
  9.922E-02  1.799E-01  1.017E+05  2.602E-07  6.427E-02  4.438E+02  4.456E+02
  9.922E-02  1.862E-01  1.017E+05  2.010E-07  6.419E-02  4.282E+02  4.303E+02
  9.922E-02  1.925E-01  1.017E+05  1.390E-07  6.413E-02  4.118E+02  4.141E+02
  9.922E-02  1.988E-01  1.017E+05  6.967E-08  6.411E-02  3.953E+02  3.977E+02
  9.922E-02  2.052E-01  1.017E+05 -1.670E-08  6.415E-02  3.796E+02  3.819E+02
  9.922E-02  2.115E-01  1.017E+05 -1.040E-07  6.420E-02  3.651E+02  3.673E+02
  9.922E-02  2.178E-01  1.017E+05 -1.772E-07  6.424E-02  3.521E+02  3.542E+02
  9.922E-02  2.241E-01  1.017E+05 -6.735E-08  6.434E-02  3.408E+02  3.426E+02
  9.922E-02  2.304E-01  1.017E+05 -1.044E-06  6.444E-02  3.311E+02  3.327E+02
  9.922E-02  2.367E-01  1.017E+05 -2.303E-06  6.453E-02  3.230E+02  3.244E+02
  9.922E-02  2.430E-01  1.017E+05 -1.101E-06  6.462E-02  3.164E+02  3.175E+02
  9.922E-02  2.493E-01  1.016E+05 -1.525E-07  6.469E-02  3.110E+02  3.119E+02
  9.922E-02  2.557E-01  1.016E+05 -1.109E-07  6.476E-02  3.068E+02  3.075E+02
  9.922E-02  2.620E-01  1.016E+05 -1.020E-06  6.480E-02  3.034E+02  3.040E+02
  9.922E-02  2.683E-01  1.016E+05 -2.302E-06  6.484E-02  3.008E+02  3.013E+02
  9.922E-02  2.746E-01  1.016E+05 -1.077E-06  6.489E-02  2.988E+02  2.992E+02
  9.922E-02  2.809E-01  1.016E+05 -4.930E-08  6.491E-02  2.974E+02  2.976E+02
  9.922E-02  2.872E-01  1.016E+05 -1.771E-07  6.494E-02  2.962E+02  2.964E+02
  9.922E-02  2.935E-01  1.016E+05 -1.388E-07  6.496E-02  2.954E+02  2.956E+02
  9.922E-02  2.998E-01  1.016E+05 -1.370E-07  6.496E-02  2.948E+02  2.949E+02
  9.922E-02  3.062E-01  1.016E+05 -1.267E-07  6.496E-02  2.944E+02  2.944E+02
  9.922E-02  3.125E-01  1.016E+05 -1.187E-07  6.497E-02  2.940E+02  2.941E+02
  9.922E-02  3.188E-01  1.016E+05 -1.121E-07  6.499E-02  2.938E+02  2.938E+02
  9.922E-02  3.251E-01  1.015E+05 -1.085E-07  6.499E-02  2.936E+02  2.937E+02
  9.922E-02  3.314E-01  1.015E+05 -1.087E-07  6.499E-02  2.935E+02  2.935E+02
  9.922E-02  3.377E-01  1.015E+05 -1.163E-07  6.500E-02  2.934E+02  2.934E+02