VARIABLES="XP","YP","P","U","V","TS","TF"
ZONE T="Zone 001"I=    82 J=    12 F=POINT
  0.000E+00  0.000E+00  1.020E+05  0.000E+00  0.000E+00  2.930E+02  2.930E+02
  0.000E+00  3.156E-03  1.020E+05  0.000E+00  0.000E+00  2.930E+02  2.930E+02
  0.000E+00  9.469E-03  1.020E+05  0.000E+00  0.000E+00  2.930E+02  2.930E+02
  0.000E+00  1.578E-02  1.020E+05  0.000E+00  0.000E+00  2.930E+02  2.930E+02
  0.000E+00  2.209E-02  1.020E+05  0.000E+00  0.000E+00  2.930E+02  2.930E+02
  0.000E+00  2.841E-02  1.020E+05  0.000E+00  0.000E+00  2.930E+02  2.930E+02
  0.000E+00  3.472E-02  1.020E+05  0.000E+00  0.000E+00  2.930E+02  2.930E+02
  0.000E+00  4.103E-02  1.020E+05  0.000E+00  0.000E+00  2.930E+02  2.930E+02
  0.000E+00  4.734E-02  1.020E+05  0.000E+00  0.000E+00  2.931E+02  2.931E+02
  0.000E+00  5.366E-02  1.020E+05  0.000E+00  0.000E+00  2.931E+02  2.931E+02
  0.000E+00  5.997E-02  1.020E+05  0.000E+00  0.000E+00  2.932E+02  2.932E+02
  0.000E+00  6.628E-02  1.019E+05  0.000E+00  0.000E+00  2.933E+02  2.933E+02
  0.000E+00  7.259E-02  1.019E+05  0.000E+00  0.000E+00  2.934E+02  2.934E+02
  0.000E+00  7.891E-02  1.019E+05  0.000E+00  0.000E+00  2.937E+02  2.937E+02
  0.000E+00  8.522E-02  1.019E+05  0.000E+00  0.000E+00  2.941E+02  2.941E+02
  0.000E+00  9.153E-02  1.019E+05  0.000E+00  0.000E+00  2.946E+02  2.946E+02
  0.000E+00  9.784E-02  1.019E+05  0.000E+00  0.000E+00  2.954E+02  2.954E+02
  0.000E+00  1.042E-01  1.019E+05  0.000E+00  0.000E+00  2.965E+02  2.965E+02
  0.000E+00  1.105E-01  1.019E+05  0.000E+00  0.000E+00  2.981E+02  2.980E+02
  0.000E+00  1.168E-01  1.019E+05  0.000E+00  0.000E+00  3.001E+02  3.001E+02
  0.000E+00  1.231E-01  1.019E+05  0.000E+00  0.000E+00  3.028E+02  3.027E+02
  0.000E+00  1.294E-01  1.018E+05  0.000E+00  0.000E+00  3.063E+02  3.062E+02
  0.000E+00  1.357E-01  1.018E+05  0.000E+00  0.000E+00  3.107E+02  3.105E+02
  0.000E+00  1.420E-01  1.018E+05  0.000E+00  0.000E+00  3.160E+02  3.158E+02
  0.000E+00  1.483E-01  1.018E+05  0.000E+00  0.000E+00  3.223E+02  3.221E+02
  0.000E+00  1.547E-01  1.018E+05  0.000E+00  0.000E+00  3.297E+02  3.294E+02
  0.000E+00  1.610E-01  1.018E+05  0.000E+00  0.000E+00  3.381E+02  3.377E+02
  0.000E+00  1.673E-01  1.018E+05  0.000E+00  0.000E+00  3.473E+02  3.469E+02
  0.000E+00  1.736E-01  1.018E+05  0.000E+00  0.000E+00  3.571E+02  3.568E+02
  0.000E+00  1.799E-01  1.018E+05  0.000E+00  0.000E+00  3.674E+02  3.670E+02
  0.000E+00  1.862E-01  1.018E+05  0.000E+00  0.000E+00  3.778E+02  3.774E+02
  0.000E+00  1.925E-01  1.018E+05  0.000E+00  0.000E+00  3.879E+02  3.875E+02
  0.000E+00  1.988E-01  1.018E+05  0.000E+00  0.000E+00  3.973E+02  3.970E+02
  0.000E+00  2.052E-01  1.017E+05  0.000E+00  0.000E+00  4.058E+02  4.055E+02
  0.000E+00  2.115E-01  1.017E+05  0.000E+00  0.000E+00  4.129E+02  4.127E+02
  0.000E+00  2.178E-01  1.017E+05  0.000E+00  0.000E+00  4.185E+02  4.183E+02
  0.000E+00  2.241E-01  1.017E+05  0.000E+00  0.000E+00  4.222E+02  4.221E+02
  0.000E+00  2.304E-01  1.017E+05  0.000E+00  0.000E+00  4.240E+02  4.239E+02
  0.000E+00  2.367E-01  1.017E+05  0.000E+00  0.000E+00  4.239E+02  4.239E+02
  0.000E+00  2.430E-01  1.017E+05  0.000E+00  0.000E+00  4.218E+02  4.219E+02
  0.000E+00  2.493E-01  1.017E+05  0.000E+00  0.000E+00  4.180E+02  4.181E+02
  0.000E+00  2.557E-01  1.017E+05  0.000E+00  0.000E+00  4.126E+02  4.128E+02
  0.000E+00  2.620E-01  1.017E+05  0.000E+00  0.000E+00  4.060E+02  4.062E+02
  0.000E+00  2.683E-01  1.017E+05  0.000E+00  0.000E+00  3.983E+02  3.986E+02
  0.000E+00  2.746E-01  1.016E+05  0.000E+00  0.000E+00  3.899E+02  3.902E+02
  0.000E+00  2.809E-01  1.016E+05  0.000E+00  0.000E+00  3.811E+02  3.814E+02
  0.000E+00  2.872E-01  1.016E+05  0.000E+00  0.000E+00  3.721E+02  3.725E+02
  0.000E+00  2.935E-01  1.016E+05  0.000E+00  0.000E+00  3.632E+02  3.636E+02
  0.000E+00  2.998E-01  1.016E+05  0.000E+00  0.000E+00  3.547E+02  3.550E+02
  0.000E+00  3.062E-01  1.016E+05  0.000E+00  0.000E+00  3.466E+02  3.469E+02
  0.000E+00  3.125E-01  1.016E+05  0.000E+00  0.000E+00  3.391E+02  3.394E+02
  0.000E+00  3.188E-01  1.016E+05  0.000E+00  0.000E+00  3.322E+02  3.325E+02
  0.000E+00  3.251E-01  1.016E+05  0.000E+00  0.000E+00  3.261E+02  3.263E+02
  0.000E+00  3.314E-01  1.016E+05  0.000E+00  0.000E+00  3.206E+02  3.208E+02
  0.000E+00  3.377E-01  1.016E+05  0.000E+00  0.000E+00  3.159E+02  3.161E+02
  0.000E+00  3.440E-01  1.016E+05  0.000E+00  0.000E+00  3.118E+02  3.120E+02
  0.000E+00  3.503E-01  1.015E+05  0.000E+00  0.000E+00  3.083E+02  3.085E+02
  0.000E+00  3.567E-01  1.015E+05  0.000E+00  0.000E+00  3.054E+02  3.055E+02
  0.000E+00  3.630E-01  1.015E+05  0.000E+00  0.000E+00  3.030E+02  3.031E+02
  0.000E+00  3.693E-01  1.015E+05  0.000E+00  0.000E+00  3.010E+02  3.011E+02
  0.000E+00  3.756E-01  1.015E+05  0.000E+00  0.000E+00  2.993E+02  2.994E+02
  0.000E+00  3.819E-01  1.015E+05  0.000E+00  0.000E+00  2.980E+02  2.981E+02
  0.000E+00  3.882E-01  1.015E+05  0.000E+00  0.000E+00  2.970E+02  2.970E+02
  0.000E+00  3.945E-01  1.015E+05  0.000E+00  0.000E+00  2.961E+02  2.962E+02
  0.000E+00  4.008E-01  1.015E+05  0.000E+00  0.000E+00  2.954E+02  2.955E+02
  0.000E+00  4.072E-01  1.015E+05  0.000E+00  0.000E+00  2.949E+02  2.949E+02
  0.000E+00  4.135E-01  1.015E+05  0.000E+00  0.000E+00  2.945E+02  2.945E+02
  0.000E+00  4.198E-01  1.014E+05  0.000E+00  0.000E+00  2.942E+02  2.942E+02
  0.000E+00  4.261E-01  1.014E+05  0.000E+00  0.000E+00  2.939E+02  2.939E+02
  0.000E+00  4.324E-01  1.014E+05  0.000E+00  0.000E+00  2.937E+02  2.938E+02
  0.000E+00  4.387E-01  1.014E+05  0.000E+00  0.000E+00  2.936E+02  2.936E+02
  0.000E+00  4.450E-01  1.014E+05  0.000E+00  0.000E+00  2.935E+02  2.935E+02
  0.000E+00  4.513E-01  1.014E+05  0.000E+00  0.000E+00  2.934E+02  2.934E+02
  0.000E+00  4.577E-01  1.014E+05  0.000E+00  0.000E+00  2.933E+02  2.933E+02
  0.000E+00  4.640E-01  1.014E+05  0.000E+00  0.000E+00  2.933E+02  2.933E+02
  0.000E+00  4.703E-01  1.014E+05  0.000E+00  0.000E+00  2.932E+02  2.932E+02
  0.000E+00  4.766E-01  1.014E+05  0.000E+00  0.000E+00  2.932E+02  2.932E+02
  0.000E+00  4.829E-01  1.014E+05  0.000E+00  0.000E+00  2.932E+02  2.932E+02
  0.000E+00  4.892E-01  1.013E+05  0.000E+00  0.000E+00  2.931E+02  2.931E+02
  0.000E+00  4.955E-01  1.013E+05  0.000E+00  0.000E+00  2.931E+02  2.931E+02
  0.000E+00  5.018E-01  1.013E+05  0.000E+00  0.000E+00  2.931E+02  2.931E+02
  0.000E+00  5.050E-01  1.013E+05  0.000E+00  0.000E+00  2.931E+02  2.931E+02
  1.417E-02  0.000E+00  1.021E+05 -6.457E-09  6.500E-02  2.930E+02  2.930E+02
  1.417E-02  3.156E-03  1.020E+05 -6.457E-09  6.362E-02  2.930E+02  2.930E+02
  1.417E-02  9.469E-03  1.020E+05  3.586E-09  6.307E-02  2.930E+02  2.930E+02
  1.417E-02  1.578E-02  1.020E+05  1.436E-10  6.200E-02  2.930E+02  2.930E+02
  1.417E-02  2.209E-02  1.020E+05  2.649E-09  6.098E-02  2.930E+02  2.930E+02
  1.417E-02  2.841E-02  1.020E+05  2.135E-09  6.008E-02  2.930E+02  2.930E+02
  1.417E-02  3.472E-02  1.020E+05  2.151E-09  5.930E-02  2.930E+02  2.930E+02
  1.417E-02  4.103E-02  1.020E+05  1.887E-09  5.865E-02  2.930E+02  2.930E+02
  1.417E-02  4.734E-02  1.020E+05  1.318E-09  5.808E-02  2.931E+02  2.931E+02
  1.417E-02  5.366E-02  1.020E+05  7.978E-10  5.758E-02  2.931E+02  2.931E+02
  1.417E-02  5.997E-02  1.020E+05  7.425E-10  5.715E-02  2.932E+02  2.932E+02
  1.417E-02  6.628E-02  1.019E+05  2.567E-10  5.679E-02  2.933E+02  2.933E+02
  1.417E-02  7.259E-02  1.019E+05 -3.929E-10  5.647E-02  2.934E+02  2.934E+02
  1.417E-02  7.891E-02  1.019E+05 -7.219E-10  5.620E-02  2.937E+02  2.937E+02
  1.417E-02  8.522E-02  1.019E+05 -1.104E-09  5.597E-02  2.941E+02  2.941E+02
  1.417E-02  9.153E-02  1.019E+05 -1.480E-09  5.575E-02  2.946E+02  2.946E+02
  1.417E-02  9.784E-02  1.019E+05 -2.164E-09  5.556E-02  2.954E+02  2.954E+02
  1.417E-02  1.042E-01  1.019E+05 -2.935E-09  5.540E-02  2.965E+02  2.965E+02
  1.417E-02  1.105E-01  1.019E+05 -3.617E-09  5.526E-02  2.981E+02  2.980E+02
  1.417E-02  1.168E-01  1.019E+05 -4.027E-09  5.514E-02  3.001E+02  3.001E+02
  1.417E-02  1.231E-01  1.019E+05 -4.754E-09  5.503E-02  3.028E+02  3.027E+02
  1.417E-02  1.294E-01  1.018E+05 -5.068E-09  5.493E-02  3.063E+02  3.062E+02
  1.417E-02  1.357E-01  1.018E+05 -5.078E-09  5.485E-02  3.107E+02  3.105E+02
  1.417E-02  1.420E-01  1.018E+05 -5.354E-09  5.478E-02  3.160E+02  3.158E+02
  1.417E-02  1.483E-01  1.018E+05 -6.157E-09  5.472E-02  3.223E+02  3.221E+02
  1.417E-02  1.547E-01  1.018E+05 -7.157E-09  5.467E-02  3.297E+02  3.294E+02
  1.417E-02  1.610E-01  1.018E+05 -7.815E-09  5.463E-02  3.381E+02  3.377E+02
  1.417E-02  1.673E-01  1.018E+05 -9.672E-09  5.460E-02  3.473E+02  3.469E+02
  1.417E-02  1.736E-01  1.018E+05 -1.206E-08  5.457E-02  3.571E+02  3.568E+02
  1.417E-02  1.799E-01  1.018E+05 -1.509E-08  5.455E-02  3.674E+02  3.670E+02
  1.417E-02  1.862E-01  1.018E+05 -2.063E-08  5.453E-02  3.778E+02  3.774E+02
  1.417E-02  1.925E-01  1.018E+05 -2.869E-08  5.452E-02  3.879E+02  3.875E+02
  1.417E-02  1.988E-01  1.018E+05 -3.424E-08  5.451E-02  3.973E+02  3.970E+02
  1.417E-02  2.052E-01  1.017E+05 -3.139E-08  5.449E-02  4.058E+02  4.055E+02
  1.417E-02  2.115E-01  1.017E+05 -2.647E-08  5.447E-02  4.129E+02  4.127E+02
  1.417E-02  2.178E-01  1.017E+05 -1.975E-08  5.445E-02  4.185E+02  4.183E+02
  1.417E-02  2.241E-01  1.017E+05 -5.023E-09  5.444E-02  4.222E+02  4.221E+02
  1.417E-02  2.304E-01  1.017E+05 -1.790E-07  5.441E-02  4.240E+02  4.239E+02
  1.417E-02  2.367E-01  1.017E+05  4.490E-07  5.438E-02  4.239E+02  4.239E+02
  1.417E-02  2.430E-01  1.017E+05  6.482E-06  5.435E-02  4.218E+02  4.219E+02
  1.417E-02  2.493E-01  1.017E+05  4.589E-07  5.432E-02  4.180E+02  4.181E+02
  1.417E-02  2.557E-01  1.017E+05 -2.070E-07  5.428E-02  4.126E+02  4.128E+02
  1.417E-02  2.620E-01  1.017E+05 -5.770E-08  5.423E-02  4.060E+02  4.062E+02
  1.417E-02  2.683E-01  1.017E+05 -5.731E-08  5.419E-02  3.983E+02  3.986E+02
  1.417E-02  2.746E-01  1.016E+05 -3.830E-08  5.414E-02  3.899E+02  3.902E+02
  1.417E-02  2.809E-01  1.016E+05 -2.784E-08  5.409E-02  3.811E+02  3.814E+02
  1.417E-02  2.872E-01  1.016E+05 -1.992E-08  5.404E-02  3.721E+02  3.725E+02
  1.417E-02  2.935E-01  1.016E+05 -1.405E-08  5.398E-02  3.632E+02  3.636E+02
  1.417E-02  2.998E-01  1.016E+05 -9.530E-09  5.393E-02  3.547E+02  3.550E+02
  1.417E-02  3.062E-01  1.016E+05 -6.342E-09  5.387E-02  3.466E+02  3.469E+02
  1.417E-02  3.125E-01  1.016E+05 -4.168E-09  5.381E-02  3.391E+02  3.394E+02
  1.417E-02  3.188E-01  1.016E+05 -2.172E-09  5.376E-02  3.322E+02  3.325E+02
  1.417E-02  3.251E-01  1.016E+05 -9.792E-10  5.372E-02  3.261E+02  3.263E+02
  1.417E-02  3.314E-01  1.016E+05 -3.316E-10  5.367E-02  3.206E+02  3.208E+02
  1.417E-02  3.377E-01  1.016E+05  4.786E-10  5.362E-02  3.159E+02  3.161E+02
  1.417E-02  3.440E-01  1.016E+05  9.231E-10  5.358E-02  3.118E+02  3.120E+02
  1.417E-02  3.503E-01  1.015E+05  1.211E-09  5.354E-02  3.083E+02  3.085E+02
  1.417E-02  3.567E-01  1.015E+05  1.686E-09  5.350E-02  3.054E+02  3.055E+02
  1.417E-02  3.630E-01  1.015E+05  1.195E-09  5.347E-02  3.030E+02  3.031E+02
  1.417E-02  3.693E-01  1.015E+05  8.327E-10  5.345E-02  3.010E+02  3.011E+02
  1.417E-02  3.756E-01  1.015E+05  1.008E-09  5.342E-02  2.993E+02  2.994E+02
  1.417E-02  3.819E-01  1.015E+05  8.220E-10  5.339E-02  2.980E+02  2.981E+02
  1.417E-02  3.882E-01  1.015E+05  8.821E-10  5.336E-02  2.970E+02  2.970E+02
  1.417E-02  3.945E-01  1.015E+05  8.733E-10  5.336E-02  2.961E+02  2.962E+02
  1.417E-02  4.008E-01  1.015E+05  9.525E-10  5.334E-02  2.954E+02  2.955E+02
  1.417E-02  4.072E-01  1.015E+05  8.338E-10  5.332E-02  2.949E+02  2.949E+02
  1.417E-02  4.135E-01  1.015E+05  6.325E-10  5.331E-02  2.945E+02  2.945E+02
  1.417E-02  4.198E-01  1.014E+05  5.355E-10  5.330E-02  2.942E+02  2.942E+02
  1.417E-02  4.261E-01  1.014E+05  4.231E-10  5.329E-02  2.939E+02  2.939E+02
  1.417E-02  4.324E-01  1.014E+05  4.155E-10  5.328E-02  2.937E+02  2.938E+02
  1.417E-02  4.387E-01  1.014E+05  2.664E-10  5.328E-02  2.936E+02  2.936E+02
  1.417E-02  4.450E-01  1.014E+05  5.501E-11  5.327E-02  2.935E+02  2.935E+02
  1.417E-02  4.513E-01  1.014E+05 -1.212E-10  5.326E-02  2.934E+02  2.934E+02
  1.417E-02  4.577E-01  1.014E+05 -2.386E-10  5.326E-02  2.933E+02  2.933E+02
  1.417E-02  4.640E-01  1.014E+05 -3.255E-10  5.326E-02  2.933E+02  2.933E+02
  1.417E-02  4.703E-01  1.014E+05 -4.692E-10  5.325E-02  2.932E+02  2.932E+02
  1.417E-02  4.766E-01  1.014E+05 -5.951E-10  5.325E-02  2.932E+02  2.932E+02
  1.417E-02  4.829E-01  1.014E+05 -5.173E-10  5.325E-02  2.932E+02  2.932E+02
  1.417E-02  4.892E-01  1.013E+05 -6.577E-10  5.324E-02  2.931E+02  2.931E+02
  1.417E-02  4.955E-01  1.013E+05 -4.958E-10  5.324E-02  2.931E+02  2.931E+02
  1.417E-02  5.018E-01  1.013E+05 -2.372E-11  5.324E-02  2.931E+02  2.931E+02
  1.417E-02  5.050E-01  1.013E+05 -2.372E-11  5.324E-02  2.931E+02  2.930E+02
  4.252E-02  0.000E+00  1.021E+05 -5.378E-09  6.500E-02  2.930E+02  2.930E+02
  4.252E-02  3.156E-03  1.020E+05 -5.378E-09  6.362E-02  2.930E+02  2.930E+02
  4.252E-02  9.469E-03  1.020E+05  3.354E-09  6.307E-02  2.930E+02  2.930E+02
  4.252E-02  1.578E-02  1.020E+05 -3.229E-09  6.200E-02  2.930E+02  2.930E+02
  4.252E-02  2.209E-02  1.020E+05 -1.440E-08  6.098E-02  2.930E+02  2.930E+02
  4.252E-02  2.841E-02  1.020E+05 -1.021E-09  6.008E-02  2.930E+02  2.930E+02
  4.252E-02  3.472E-02  1.020E+05 -1.098E-10  5.930E-02  2.930E+02  2.930E+02
  4.252E-02  4.103E-02  1.020E+05  1.325E-09  5.865E-02  2.930E+02  2.930E+02
  4.252E-02  4.734E-02  1.020E+05  1.362E-09  5.808E-02  2.931E+02  2.931E+02
  4.252E-02  5.366E-02  1.020E+05  1.115E-09  5.758E-02  2.931E+02  2.931E+02
  4.252E-02  5.997E-02  1.020E+05  3.433E-10  5.715E-02  2.932E+02  2.932E+02
  4.252E-02  6.628E-02  1.019E+05 -9.282E-10  5.679E-02  2.933E+02  2.933E+02
  4.252E-02  7.259E-02  1.019E+05 -2.574E-09  5.647E-02  2.934E+02  2.934E+02
  4.252E-02  7.891E-02  1.019E+05 -3.793E-09  5.620E-02  2.937E+02  2.937E+02
  4.252E-02  8.522E-02  1.019E+05 -5.147E-09  5.597E-02  2.941E+02  2.941E+02
  4.252E-02  9.153E-02  1.019E+05 -7.111E-09  5.575E-02  2.946E+02  2.946E+02
  4.252E-02  9.784E-02  1.019E+05 -9.280E-09  5.556E-02  2.954E+02  2.954E+02
  4.252E-02  1.042E-01  1.019E+05 -1.166E-08  5.540E-02  2.965E+02  2.965E+02
  4.252E-02  1.105E-01  1.019E+05 -1.361E-08  5.526E-02  2.981E+02  2.980E+02
  4.252E-02  1.168E-01  1.019E+05 -1.416E-08  5.514E-02  3.001E+02  3.001E+02
  4.252E-02  1.231E-01  1.019E+05 -1.450E-08  5.503E-02  3.028E+02  3.027E+02
  4.252E-02  1.294E-01  1.018E+05 -1.435E-08  5.493E-02  3.063E+02  3.062E+02
  4.252E-02  1.357E-01  1.018E+05 -1.348E-08  5.485E-02  3.107E+02  3.105E+02
  4.252E-02  1.420E-01  1.018E+05 -1.284E-08  5.478E-02  3.160E+02  3.158E+02
  4.252E-02  1.483E-01  1.018E+05 -1.274E-08  5.472E-02  3.223E+02  3.221E+02
  4.252E-02  1.547E-01  1.018E+05 -1.277E-08  5.467E-02  3.297E+02  3.294E+02
  4.252E-02  1.610E-01  1.018E+05 -1.272E-08  5.463E-02  3.381E+02  3.377E+02
  4.252E-02  1.673E-01  1.018E+05 -1.374E-08  5.460E-02  3.473E+02  3.469E+02
  4.252E-02  1.736E-01  1.018E+05 -1.496E-08  5.458E-02  3.571E+02  3.568E+02
  4.252E-02  1.799E-01  1.018E+05 -1.682E-08  5.455E-02  3.674E+02  3.670E+02
  4.252E-02  1.862E-01  1.018E+05 -2.125E-08  5.453E-02  3.778E+02  3.774E+02
  4.252E-02  1.925E-01  1.018E+05 -2.783E-08  5.452E-02  3.879E+02  3.875E+02
  4.252E-02  1.988E-01  1.018E+05 -3.084E-08  5.451E-02  3.973E+02  3.970E+02
  4.252E-02  2.052E-01  1.017E+05 -2.451E-08  5.449E-02  4.058E+02  4.055E+02
  4.252E-02  2.115E-01  1.017E+05 -1.454E-08  5.447E-02  4.129E+02  4.127E+02
  4.252E-02  2.178E-01  1.017E+05 -2.768E-09  5.445E-02  4.185E+02  4.183E+02
  4.252E-02  2.241E-01  1.017E+05  1.851E-08  5.444E-02  4.222E+02  4.221E+02
  4.252E-02  2.304E-01  1.017E+05 -1.533E-07  5.441E-02  4.240E+02  4.239E+02
  4.252E-02  2.367E-01  1.017E+05  4.897E-07  5.438E-02  4.239E+02  4.239E+02
  4.252E-02  2.430E-01  1.017E+05  1.471E-06  5.435E-02  4.218E+02  4.219E+02
  4.252E-02  2.493E-01  1.017E+05  7.619E-07  5.431E-02  4.180E+02  4.181E+02
  4.252E-02  2.557E-01  1.017E+05  8.366E-08  5.428E-02  4.126E+02  4.128E+02
  4.252E-02  2.620E-01  1.017E+05  2.627E-08  5.423E-02  4.060E+02  4.062E+02
  4.252E-02  2.683E-01  1.017E+05 -7.579E-08  5.419E-02  3.983E+02  3.986E+02
  4.252E-02  2.746E-01  1.016E+05 -3.445E-08  5.414E-02  3.899E+02  3.902E+02
  4.252E-02  2.809E-01  1.016E+05 -2.626E-08  5.410E-02  3.811E+02  3.814E+02
  4.252E-02  2.872E-01  1.016E+05 -3.337E-08  5.404E-02  3.721E+02  3.725E+02
  4.252E-02  2.935E-01  1.016E+05 -2.218E-08  5.398E-02  3.632E+02  3.636E+02
  4.252E-02  2.998E-01  1.016E+05 -1.263E-08  5.393E-02  3.547E+02  3.550E+02
  4.252E-02  3.062E-01  1.016E+05 -7.187E-09  5.387E-02  3.466E+02  3.469E+02
  4.252E-02  3.125E-01  1.016E+05 -2.782E-09  5.382E-02  3.391E+02  3.394E+02
  4.252E-02  3.188E-01  1.016E+05  5.560E-11  5.376E-02  3.322E+02  3.325E+02
  4.252E-02  3.251E-01  1.016E+05  2.265E-09  5.372E-02  3.261E+02  3.263E+02
  4.252E-02  3.314E-01  1.016E+05  3.882E-09  5.367E-02  3.206E+02  3.208E+02
  4.252E-02  3.377E-01  1.016E+05  4.801E-09  5.362E-02  3.159E+02  3.161E+02
  4.252E-02  3.440E-01  1.016E+05  5.385E-09  5.358E-02  3.118E+02  3.120E+02
  4.252E-02  3.503E-01  1.015E+05  5.767E-09  5.354E-02  3.083E+02  3.085E+02
  4.252E-02  3.567E-01  1.015E+05  6.157E-09  5.350E-02  3.054E+02  3.055E+02
  4.252E-02  3.630E-01  1.015E+05  5.628E-09  5.347E-02  3.030E+02  3.031E+02
  4.252E-02  3.693E-01  1.015E+05  4.995E-09  5.345E-02  3.010E+02  3.011E+02
  4.252E-02  3.756E-01  1.015E+05  4.759E-09  5.342E-02  2.993E+02  2.994E+02
  4.252E-02  3.819E-01  1.015E+05  4.164E-09  5.339E-02  2.980E+02  2.981E+02
  4.252E-02  3.882E-01  1.015E+05  4.210E-09  5.336E-02  2.970E+02  2.970E+02
  4.252E-02  3.945E-01  1.015E+05  4.124E-09  5.336E-02  2.961E+02  2.962E+02
  4.252E-02  4.008E-01  1.015E+05  3.875E-09  5.334E-02  2.955E+02  2.955E+02
  4.252E-02  4.072E-01  1.015E+05  3.733E-09  5.332E-02  2.949E+02  2.949E+02
  4.252E-02  4.135E-01  1.015E+05  3.371E-09  5.331E-02  2.945E+02  2.945E+02
  4.252E-02  4.198E-01  1.014E+05  3.196E-09  5.330E-02  2.942E+02  2.942E+02
  4.252E-02  4.261E-01  1.014E+05  2.559E-09  5.329E-02  2.939E+02  2.939E+02
  4.252E-02  4.324E-01  1.014E+05  1.802E-09  5.328E-02  2.937E+02  2.938E+02
  4.252E-02  4.387E-01  1.014E+05  1.618E-09  5.328E-02  2.936E+02  2.936E+02
  4.252E-02  4.450E-01  1.014E+05  1.426E-09  5.327E-02  2.935E+02  2.935E+02
  4.252E-02  4.513E-01  1.014E+05  1.076E-09  5.326E-02  2.934E+02  2.934E+02
  4.252E-02  4.577E-01  1.014E+05  4.272E-10  5.326E-02  2.933E+02  2.933E+02
  4.252E-02  4.640E-01  1.014E+05 -1.501E-10  5.326E-02  2.933E+02  2.933E+02
  4.252E-02  4.703E-01  1.014E+05 -5.028E-10  5.325E-02  2.932E+02  2.932E+02
  4.252E-02  4.766E-01  1.014E+05 -8.356E-10  5.325E-02  2.932E+02  2.932E+02
  4.252E-02  4.829E-01  1.014E+05 -1.013E-09  5.325E-02  2.932E+02  2.932E+02
  4.252E-02  4.892E-01  1.013E+05 -9.612E-10  5.324E-02  2.931E+02  2.931E+02
  4.252E-02  4.955E-01  1.013E+05 -1.305E-09  5.324E-02  2.931E+02  2.931E+02
  4.252E-02  5.018E-01  1.013E+05 -1.703E-09  5.324E-02  2.931E+02  2.931E+02
  4.252E-02  5.050E-01  1.013E+05 -1.703E-09  5.324E-02  2.931E+02  2.930E+02
  7.087E-02  0.000E+00  1.021E+05  5.836E-09  6.500E-02  2.930E+02  2.930E+02
  7.087E-02  3.156E-03  1.020E+05  5.836E-09  6.362E-02  2.930E+02  2.930E+02
  7.087E-02  9.469E-03  1.020E+05  4.493E-09  6.307E-02  2.930E+02  2.930E+02
  7.087E-02  1.578E-02  1.020E+05  1.142E-09  6.200E-02  2.930E+02  2.930E+02
  7.087E-02  2.209E-02  1.020E+05 -1.292E-08  6.098E-02  2.930E+02  2.930E+02
  7.087E-02  2.841E-02  1.020E+05  4.910E-10  6.008E-02  2.930E+02  2.930E+02
  7.087E-02  3.472E-02  1.020E+05  8.918E-10  5.930E-02  2.930E+02  2.930E+02
  7.087E-02  4.103E-02  1.020E+05  2.227E-09  5.865E-02  2.930E+02  2.930E+02
  7.087E-02  4.734E-02  1.020E+05  2.465E-09  5.808E-02  2.931E+02  2.931E+02
  7.087E-02  5.366E-02  1.020E+05  2.623E-09  5.758E-02  2.931E+02  2.931E+02
  7.087E-02  5.997E-02  1.020E+05  2.232E-09  5.715E-02  2.932E+02  2.932E+02
  7.087E-02  6.628E-02  1.019E+05  2.679E-09  5.679E-02  2.933E+02  2.933E+02
  7.087E-02  7.259E-02  1.019E+05  3.346E-09  5.647E-02  2.934E+02  2.934E+02
  7.087E-02  7.891E-02  1.019E+05  4.472E-09  5.620E-02  2.937E+02  2.937E+02
  7.087E-02  8.522E-02  1.019E+05  7.093E-09  5.597E-02  2.941E+02  2.941E+02
  7.087E-02  9.153E-02  1.019E+05  8.110E-09  5.575E-02  2.946E+02  2.946E+02
  7.087E-02  9.784E-02  1.019E+05  2.102E-08  5.556E-02  2.954E+02  2.954E+02
  7.087E-02  1.042E-01  1.019E+05  3.051E-09  5.540E-02  2.965E+02  2.965E+02
  7.087E-02  1.105E-01  1.019E+05 -4.488E-09  5.526E-02  2.981E+02  2.980E+02
  7.087E-02  1.168E-01  1.019E+05  7.109E-09  5.514E-02  3.001E+02  3.001E+02
  7.087E-02  1.231E-01  1.019E+05 -3.431E-09  5.503E-02  3.028E+02  3.027E+02
  7.087E-02  1.294E-01  1.018E+05 -4.218E-09  5.493E-02  3.063E+02  3.062E+02
  7.087E-02  1.357E-01  1.018E+05 -7.432E-09  5.485E-02  3.107E+02  3.105E+02
  7.087E-02  1.420E-01  1.018E+05 -8.069E-09  5.478E-02  3.160E+02  3.158E+02
  7.087E-02  1.483E-01  1.018E+05 -9.282E-09  5.472E-02  3.223E+02  3.221E+02
  7.087E-02  1.547E-01  1.018E+05 -1.031E-08  5.467E-02  3.297E+02  3.294E+02
  7.087E-02  1.610E-01  1.018E+05 -1.043E-08  5.463E-02  3.381E+02  3.377E+02
  7.087E-02  1.673E-01  1.018E+05 -1.022E-08  5.460E-02  3.473E+02  3.469E+02
  7.087E-02  1.736E-01  1.018E+05 -9.825E-09  5.458E-02  3.571E+02  3.567E+02
  7.087E-02  1.799E-01  1.018E+05 -9.080E-09  5.455E-02  3.674E+02  3.670E+02
  7.087E-02  1.862E-01  1.018E+05 -8.522E-09  5.453E-02  3.778E+02  3.774E+02
  7.087E-02  1.925E-01  1.018E+05 -8.762E-09  5.452E-02  3.879E+02  3.875E+02
  7.087E-02  1.988E-01  1.018E+05 -7.830E-09  5.451E-02  3.973E+02  3.970E+02
  7.087E-02  2.052E-01  1.017E+05 -6.389E-09  5.449E-02  4.058E+02  4.055E+02
  7.087E-02  2.115E-01  1.017E+05 -3.929E-09  5.447E-02  4.129E+02  4.127E+02
  7.087E-02  2.178E-01  1.017E+05 -1.225E-09  5.445E-02  4.185E+02  4.183E+02
  7.087E-02  2.241E-01  1.017E+05  2.910E-09  5.444E-02  4.222E+02  4.221E+02
  7.087E-02  2.304E-01  1.017E+05  3.286E-09  5.441E-02  4.240E+02  4.239E+02
  7.087E-02  2.367E-01  1.017E+05  1.930E-08  5.438E-02  4.239E+02  4.238E+02
  7.087E-02  2.430E-01  1.017E+05  1.357E-07  5.435E-02  4.218E+02  4.219E+02
  7.087E-02  2.493E-01  1.017E+05  3.028E-07  5.431E-02  4.180E+02  4.181E+02
  7.087E-02  2.557E-01  1.017E+05  2.809E-07  5.428E-02  4.126E+02  4.128E+02
  7.087E-02  2.620E-01  1.017E+05  7.918E-08  5.424E-02  4.060E+02  4.062E+02
  7.087E-02  2.683E-01  1.017E+05 -2.007E-08  5.419E-02  3.983E+02  3.986E+02
  7.087E-02  2.746E-01  1.016E+05  4.890E-09  5.414E-02  3.899E+02  3.902E+02
  7.087E-02  2.809E-01  1.016E+05  4.716E-09  5.410E-02  3.811E+02  3.814E+02
  7.087E-02  2.872E-01  1.016E+05 -8.530E-09  5.404E-02  3.721E+02  3.725E+02
  7.087E-02  2.935E-01  1.016E+05 -2.056E-09  5.398E-02  3.632E+02  3.636E+02
  7.087E-02  2.998E-01  1.016E+05  3.708E-09  5.393E-02  3.547E+02  3.550E+02
  7.087E-02  3.062E-01  1.016E+05  6.683E-09  5.387E-02  3.466E+02  3.469E+02
  7.087E-02  3.125E-01  1.016E+05  9.416E-09  5.382E-02  3.391E+02  3.394E+02
  7.087E-02  3.188E-01  1.016E+05  1.063E-08  5.376E-02  3.322E+02  3.325E+02
  7.087E-02  3.251E-01  1.016E+05  1.145E-08  5.372E-02  3.261E+02  3.263E+02
  7.087E-02  3.314E-01  1.016E+05  1.201E-08  5.367E-02  3.206E+02  3.208E+02
  7.087E-02  3.377E-01  1.016E+05  1.194E-08  5.362E-02  3.159E+02  3.161E+02
  7.087E-02  3.440E-01  1.016E+05  1.179E-08  5.358E-02  3.118E+02  3.120E+02
  7.087E-02  3.503E-01  1.015E+05  1.199E-08  5.354E-02  3.083E+02  3.085E+02
  7.087E-02  3.567E-01  1.015E+05  1.185E-08  5.350E-02  3.054E+02  3.055E+02
  7.087E-02  3.630E-01  1.015E+05  1.171E-08  5.347E-02  3.030E+02  3.031E+02
  7.087E-02  3.693E-01  1.015E+05  1.141E-08  5.345E-02  3.010E+02  3.011E+02
  7.087E-02  3.756E-01  1.015E+05  1.060E-08  5.342E-02  2.993E+02  2.994E+02
  7.087E-02  3.819E-01  1.015E+05  9.918E-09  5.339E-02  2.980E+02  2.981E+02
  7.087E-02  3.882E-01  1.015E+05  9.431E-09  5.336E-02  2.970E+02  2.970E+02
  7.087E-02  3.945E-01  1.015E+05  8.823E-09  5.336E-02  2.961E+02  2.962E+02
  7.087E-02  4.008E-01  1.015E+05  8.131E-09  5.334E-02  2.955E+02  2.955E+02
  7.087E-02  4.072E-01  1.015E+05  7.645E-09  5.332E-02  2.949E+02  2.949E+02
  7.087E-02  4.135E-01  1.015E+05  7.037E-09  5.331E-02  2.945E+02  2.945E+02
  7.087E-02  4.198E-01  1.014E+05  6.366E-09  5.330E-02  2.942E+02  2.942E+02
  7.087E-02  4.261E-01  1.014E+05  5.721E-09  5.329E-02  2.939E+02  2.940E+02
  7.087E-02  4.324E-01  1.014E+05  4.969E-09  5.328E-02  2.937E+02  2.938E+02
  7.087E-02  4.387E-01  1.014E+05  4.603E-09  5.328E-02  2.936E+02  2.936E+02
  7.087E-02  4.450E-01  1.014E+05  4.297E-09  5.327E-02  2.935E+02  2.935E+02
  7.087E-02  4.513E-01  1.014E+05  3.942E-09  5.326E-02  2.934E+02  2.934E+02
  7.087E-02  4.577E-01  1.014E+05  3.260E-09  5.326E-02  2.933E+02  2.933E+02
  7.087E-02  4.640E-01  1.014E+05  2.392E-09  5.326E-02  2.933E+02  2.933E+02
  7.087E-02  4.703E-01  1.014E+05  1.985E-09  5.325E-02  2.932E+02  2.932E+02
  7.087E-02  4.766E-01  1.014E+05  1.377E-09  5.325E-02  2.932E+02  2.932E+02
  7.087E-02  4.829E-01  1.014E+05  1.142E-09  5.325E-02  2.932E+02  2.932E+02
  7.087E-02  4.892E-01  1.013E+05  9.250E-10  5.324E-02  2.931E+02  2.931E+02
  7.087E-02  4.955E-01  1.013E+05  1.211E-10  5.324E-02  2.931E+02  2.931E+02
  7.087E-02  5.018E-01  1.013E+05 -2.864E-10  5.324E-02  2.931E+02  2.931E+02
  7.087E-02  5.050E-01  1.013E+05 -2.864E-10  5.324E-02  2.931E+02  2.930E+02
  9.922E-02  0.000E+00  1.021E+05  2.107E-08  6.500E-02  2.930E+02  2.930E+02
  9.922E-02  3.156E-03  1.020E+05  2.107E-08  6.362E-02  2.930E+02  2.930E+02
  9.922E-02  9.469E-03  1.020E+05  2.252E-08  6.307E-02  2.930E+02  2.930E+02
  9.922E-02  1.578E-02  1.020E+05  2.339E-08  6.200E-02  2.930E+02  2.930E+02
  9.922E-02  2.209E-02  1.020E+05  3.511E-08  6.098E-02  2.930E+02  2.930E+02
  9.922E-02  2.841E-02  1.020E+05  1.939E-08  6.008E-02  2.930E+02  2.930E+02
  9.922E-02  3.472E-02  1.020E+05  1.727E-08  5.930E-02  2.930E+02  2.930E+02
  9.922E-02  4.103E-02  1.020E+05  1.409E-08  5.865E-02  2.930E+02  2.930E+02
  9.922E-02  4.734E-02  1.020E+05  1.240E-08  5.808E-02  2.931E+02  2.931E+02
  9.922E-02  5.366E-02  1.020E+05  1.229E-08  5.758E-02  2.931E+02  2.931E+02
  9.922E-02  5.997E-02  1.020E+05  1.143E-08  5.715E-02  2.932E+02  2.932E+02
  9.922E-02  6.628E-02  1.019E+05  2.322E-08  5.679E-02  2.933E+02  2.933E+02
  9.922E-02  7.259E-02  1.019E+05  5.297E-09  5.647E-02  2.934E+02  2.934E+02
  9.922E-02  7.891E-02  1.019E+05 -2.528E-09  5.620E-02  2.937E+02  2.937E+02
  9.922E-02  8.522E-02  1.019E+05 -1.230E-08  5.597E-02  2.941E+02  2.941E+02
  9.922E-02  9.153E-02  1.019E+05 -3.309E-08  5.575E-02  2.946E+02  2.946E+02
  9.922E-02  9.784E-02  1.019E+05 -3.767E-08  5.556E-02  2.954E+02  2.954E+02
  9.922E-02  1.042E-01  1.019E+05 -4.073E-08  5.540E-02  2.965E+02  2.965E+02
  9.922E-02  1.105E-01  1.019E+05 -2.937E-08  5.526E-02  2.981E+02  2.980E+02
  9.922E-02  1.168E-01  1.019E+05 -9.703E-09  5.514E-02  3.001E+02  3.001E+02
  9.922E-02  1.231E-01  1.019E+05 -1.434E-08  5.503E-02  3.028E+02  3.027E+02
  9.922E-02  1.294E-01  1.018E+05 -1.187E-08  5.493E-02  3.063E+02  3.062E+02
  9.922E-02  1.357E-01  1.018E+05 -1.342E-08  5.485E-02  3.107E+02  3.105E+02
  9.922E-02  1.420E-01  1.018E+05 -1.358E-08  5.478E-02  3.160E+02  3.158E+02
  9.922E-02  1.483E-01  1.018E+05 -1.472E-08  5.472E-02  3.223E+02  3.221E+02
  9.922E-02  1.547E-01  1.018E+05 -1.573E-08  5.467E-02  3.297E+02  3.294E+02
  9.922E-02  1.610E-01  1.018E+05 -1.566E-08  5.463E-02  3.381E+02  3.377E+02
  9.922E-02  1.673E-01  1.018E+05 -1.538E-08  5.460E-02  3.473E+02  3.469E+02
  9.922E-02  1.736E-01  1.018E+05 -1.470E-08  5.458E-02  3.571E+02  3.567E+02
  9.922E-02  1.799E-01  1.018E+05 -1.390E-08  5.455E-02  3.674E+02  3.670E+02
  9.922E-02  1.862E-01  1.018E+05 -1.302E-08  5.453E-02  3.778E+02  3.774E+02
  9.922E-02  1.925E-01  1.018E+05 -1.351E-08  5.452E-02  3.879E+02  3.875E+02
  9.922E-02  1.988E-01  1.018E+05 -1.457E-08  5.451E-02  3.973E+02  3.970E+02
  9.922E-02  2.052E-01  1.017E+05 -1.817E-08  5.449E-02  4.058E+02  4.055E+02
  9.922E-02  2.115E-01  1.017E+05 -2.504E-08  5.447E-02  4.129E+02  4.127E+02
  9.922E-02  2.178E-01  1.017E+05 -4.434E-08  5.445E-02  4.185E+02  4.183E+02
  9.922E-02  2.241E-01  1.017E+05 -5.807E-08  5.444E-02  4.222E+02  4.220E+02
  9.922E-02  2.304E-01  1.017E+05 -2.987E-08  5.441E-02  4.240E+02  4.239E+02
  9.922E-02  2.367E-01  1.017E+05  4.501E-09  5.438E-02  4.238E+02  4.238E+02
  9.922E-02  2.430E-01  1.017E+05 -8.568E-08  5.435E-02  4.218E+02  4.219E+02
  9.922E-02  2.493E-01  1.017E+05 -2.419E-07  5.431E-02  4.180E+02  4.181E+02
  9.922E-02  2.557E-01  1.017E+05 -2.352E-07  5.428E-02  4.126E+02  4.128E+02
  9.922E-02  2.620E-01  1.017E+05 -3.849E-08  5.424E-02  4.060E+02  4.062E+02
  9.922E-02  2.683E-01  1.017E+05  5.525E-08  5.419E-02  3.983E+02  3.986E+02
  9.922E-02  2.746E-01  1.016E+05  2.747E-08  5.414E-02  3.899E+02  3.902E+02
  9.922E-02  2.809E-01  1.016E+05  2.611E-08  5.410E-02  3.811E+02  3.814E+02
  9.922E-02  2.872E-01  1.016E+05  3.855E-08  5.404E-02  3.721E+02  3.725E+02
  9.922E-02  2.935E-01  1.016E+05  3.204E-08  5.398E-02  3.632E+02  3.636E+02
  9.922E-02  2.998E-01  1.016E+05  2.612E-08  5.393E-02  3.547E+02  3.550E+02
  9.922E-02  3.062E-01  1.016E+05  2.350E-08  5.387E-02  3.466E+02  3.469E+02
  9.922E-02  3.125E-01  1.016E+05  2.118E-08  5.382E-02  3.391E+02  3.394E+02
  9.922E-02  3.188E-01  1.016E+05  2.064E-08  5.376E-02  3.322E+02  3.325E+02
  9.922E-02  3.251E-01  1.016E+05  1.946E-08  5.372E-02  3.261E+02  3.263E+02
  9.922E-02  3.314E-01  1.016E+05  1.834E-08  5.367E-02  3.206E+02  3.208E+02
  9.922E-02  3.377E-01  1.016E+05  1.806E-08  5.362E-02  3.159E+02  3.161E+02