VARIABLES="XP","YP","P","U","V","TS","TF"
ZONE T="Zone 001"I=    82 J=    22 F=POINT
  0.000E+00  0.000E+00  1.019E+05  0.000E+00  0.000E+00  7.510E-01  7.510E-01
  0.000E+00  3.156E-03  1.019E+05  0.000E+00  0.000E+00  7.510E-01  7.510E-01
  0.000E+00  9.469E-03  1.019E+05  0.000E+00  0.000E+00  7.510E-01  7.510E-01
  0.000E+00  1.578E-02  1.019E+05  0.000E+00  0.000E+00  7.510E-01  7.510E-01
  0.000E+00  2.209E-02  1.019E+05  0.000E+00  0.000E+00  7.510E-01  7.510E-01
  0.000E+00  2.841E-02  1.019E+05  0.000E+00  0.000E+00  7.510E-01  7.510E-01
  0.000E+00  3.472E-02  1.019E+05  0.000E+00  0.000E+00  7.510E-01  7.510E-01
  0.000E+00  4.103E-02  1.019E+05  0.000E+00  0.000E+00  7.510E-01  7.510E-01
  0.000E+00  4.734E-02  1.019E+05  0.000E+00  0.000E+00  7.510E-01  7.510E-01
  0.000E+00  5.366E-02  1.019E+05  0.000E+00  0.000E+00  7.510E-01  7.510E-01
  0.000E+00  5.997E-02  1.018E+05  0.000E+00  0.000E+00  7.510E-01  7.510E-01
  0.000E+00  6.628E-02  1.018E+05  0.000E+00  0.000E+00  7.510E-01  7.510E-01
  0.000E+00  7.259E-02  1.018E+05  0.000E+00  0.000E+00  7.510E-01  7.510E-01
  0.000E+00  7.891E-02  1.018E+05  0.000E+00  0.000E+00  7.510E-01  7.510E-01
  0.000E+00  8.522E-02  1.018E+05  0.000E+00  0.000E+00  7.510E-01  7.510E-01
  0.000E+00  9.153E-02  1.018E+05  0.000E+00  0.000E+00  7.510E-01  7.510E-01
  0.000E+00  9.784E-02  1.018E+05  0.000E+00  0.000E+00  7.510E-01  7.510E-01
  0.000E+00  1.042E-01  1.018E+05  0.000E+00  0.000E+00  7.510E-01  7.510E-01
  0.000E+00  1.105E-01  1.018E+05  0.000E+00  0.000E+00  7.510E-01  7.510E-01
  0.000E+00  1.168E-01  1.018E+05  0.000E+00  0.000E+00  7.510E-01  7.510E-01
  0.000E+00  1.231E-01  1.018E+05  0.000E+00  0.000E+00  7.510E-01  7.510E-01
  0.000E+00  1.294E-01  1.018E+05  0.000E+00  0.000E+00  7.510E-01  7.510E-01
  0.000E+00  1.357E-01  1.018E+05  0.000E+00  0.000E+00  7.510E-01  7.510E-01
  0.000E+00  1.420E-01  1.017E+05  0.000E+00  0.000E+00  7.510E-01  7.510E-01
  0.000E+00  1.483E-01  1.017E+05  0.000E+00  0.000E+00  7.510E-01  7.510E-01
  0.000E+00  1.547E-01  1.017E+05  0.000E+00  0.000E+00  7.510E-01  7.510E-01
  0.000E+00  1.610E-01  1.017E+05  0.000E+00  0.000E+00  7.510E-01  7.510E-01
  0.000E+00  1.673E-01  1.017E+05  0.000E+00  0.000E+00  7.510E-01  7.510E-01
  0.000E+00  1.736E-01  1.017E+05  0.000E+00  0.000E+00  7.510E-01  7.510E-01
  0.000E+00  1.799E-01  1.017E+05  0.000E+00  0.000E+00  7.510E-01  7.510E-01
  0.000E+00  1.862E-01  1.017E+05  0.000E+00  0.000E+00  7.510E-01  7.510E-01
  0.000E+00  1.925E-01  1.017E+05  0.000E+00  0.000E+00  7.510E-01  7.510E-01
  0.000E+00  1.988E-01  1.017E+05  0.000E+00  0.000E+00  7.510E-01  7.510E-01
  0.000E+00  2.052E-01  1.017E+05  0.000E+00  0.000E+00  7.511E-01  7.511E-01
  0.000E+00  2.115E-01  1.017E+05  0.000E+00  0.000E+00  7.511E-01  7.511E-01
  0.000E+00  2.178E-01  1.017E+05  0.000E+00  0.000E+00  7.511E-01  7.511E-01
  0.000E+00  2.241E-01  1.017E+05  0.000E+00  0.000E+00  7.512E-01  7.512E-01
  0.000E+00  2.304E-01  1.016E+05  0.000E+00  0.000E+00  7.513E-01  7.513E-01
  0.000E+00  2.367E-01  1.016E+05  0.000E+00  0.000E+00  7.514E-01  7.514E-01
  0.000E+00  2.430E-01  1.016E+05  0.000E+00  0.000E+00  7.515E-01  7.515E-01
  0.000E+00  2.493E-01  1.016E+05  0.000E+00  0.000E+00  7.517E-01  7.517E-01
  0.000E+00  2.557E-01  1.016E+05  0.000E+00  0.000E+00  7.519E-01  7.519E-01
  0.000E+00  2.620E-01  1.016E+05  0.000E+00  0.000E+00  7.522E-01  7.522E-01
  0.000E+00  2.683E-01  1.016E+05  0.000E+00  0.000E+00  7.526E-01  7.526E-01
  0.000E+00  2.746E-01  1.016E+05  0.000E+00  0.000E+00  7.532E-01  7.532E-01
  0.000E+00  2.809E-01  1.016E+05  0.000E+00  0.000E+00  7.539E-01  7.538E-01
  0.000E+00  2.872E-01  1.016E+05  0.000E+00  0.000E+00  7.547E-01  7.547E-01
  0.000E+00  2.935E-01  1.016E+05  0.000E+00  0.000E+00  7.559E-01  7.558E-01
  0.000E+00  2.998E-01  1.016E+05  0.000E+00  0.000E+00  7.573E-01  7.572E-01
  0.000E+00  3.062E-01  1.016E+05  0.000E+00  0.000E+00  7.590E-01  7.590E-01
  0.000E+00  3.125E-01  1.015E+05  0.000E+00  0.000E+00  7.612E-01  7.611E-01
  0.000E+00  3.188E-01  1.015E+05  0.000E+00  0.000E+00  7.640E-01  7.638E-01
  0.000E+00  3.251E-01  1.015E+05  0.000E+00  0.000E+00  7.673E-01  7.672E-01
  0.000E+00  3.314E-01  1.015E+05  0.000E+00  0.000E+00  7.714E-01  7.712E-01
  0.000E+00  3.377E-01  1.015E+05  0.000E+00  0.000E+00  7.764E-01  7.761E-01
  0.000E+00  3.440E-01  1.015E+05  0.000E+00  0.000E+00  7.823E-01  7.821E-01
  0.000E+00  3.503E-01  1.015E+05  0.000E+00  0.000E+00  7.895E-01  7.891E-01
  0.000E+00  3.567E-01  1.015E+05  0.000E+00  0.000E+00  7.979E-01  7.975E-01
  0.000E+00  3.630E-01  1.015E+05  0.000E+00  0.000E+00  8.079E-01  8.074E-01
  0.000E+00  3.693E-01  1.015E+05  0.000E+00  0.000E+00  8.196E-01  8.191E-01
  0.000E+00  3.756E-01  1.015E+05  0.000E+00  0.000E+00  8.332E-01  8.326E-01
  0.000E+00  3.819E-01  1.015E+05  0.000E+00  0.000E+00  8.490E-01  8.483E-01
  0.000E+00  3.882E-01  1.015E+05  0.000E+00  0.000E+00  8.671E-01  8.662E-01
  0.000E+00  3.945E-01  1.015E+05  0.000E+00  0.000E+00  8.877E-01  8.867E-01
  0.000E+00  4.008E-01  1.014E+05  0.000E+00  0.000E+00  9.110E-01  9.099E-01
  0.000E+00  4.072E-01  1.014E+05  0.000E+00  0.000E+00  9.373E-01  9.361E-01
  0.000E+00  4.135E-01  1.014E+05  0.000E+00  0.000E+00  9.666E-01  9.652E-01
  0.000E+00  4.198E-01  1.014E+05  0.000E+00  0.000E+00  9.991E-01  9.976E-01
  0.000E+00  4.261E-01  1.014E+05  0.000E+00  0.000E+00  1.035E+00  1.033E+00
  0.000E+00  4.324E-01  1.014E+05  0.000E+00  0.000E+00  1.074E+00  1.072E+00
  0.000E+00  4.387E-01  1.014E+05  0.000E+00  0.000E+00  1.117E+00  1.115E+00
  0.000E+00  4.450E-01  1.014E+05  0.000E+00  0.000E+00  1.163E+00  1.160E+00
  0.000E+00  4.513E-01  1.014E+05  0.000E+00  0.000E+00  1.212E+00  1.209E+00
  0.000E+00  4.577E-01  1.014E+05  0.000E+00  0.000E+00  1.264E+00  1.261E+00
  0.000E+00  4.640E-01  1.014E+05  0.000E+00  0.000E+00  1.319E+00  1.316E+00
  0.000E+00  4.703E-01  1.014E+05  0.000E+00  0.000E+00  1.376E+00  1.373E+00
  0.000E+00  4.766E-01  1.014E+05  0.000E+00  0.000E+00  1.435E+00  1.432E+00
  0.000E+00  4.829E-01  1.014E+05  0.000E+00  0.000E+00  1.495E+00  1.492E+00
  0.000E+00  4.892E-01  1.013E+05  0.000E+00  0.000E+00  1.554E+00  1.552E+00
  0.000E+00  4.955E-01  1.013E+05  0.000E+00  0.000E+00  1.609E+00  1.606E+00
  0.000E+00  5.018E-01  1.013E+05  0.000E+00  0.000E+00  1.649E+00  1.647E+00
  0.000E+00  5.050E-01  1.013E+05  0.000E+00  0.000E+00  1.649E+00  1.647E+00
  4.000E-03  0.000E+00  1.019E+05  8.159E-07  6.500E-02  7.510E-01  7.510E-01
  4.000E-03  3.156E-03  1.019E+05  8.159E-07  6.498E-02  7.510E-01  7.510E-01
  4.000E-03  9.469E-03  1.019E+05  3.451E-07  6.499E-02  7.510E-01  7.510E-01
  4.000E-03  1.578E-02  1.019E+05  2.431E-07  6.500E-02  7.510E-01  7.510E-01
  4.000E-03  2.209E-02  1.019E+05  2.384E-07  6.499E-02  7.510E-01  7.510E-01
  4.000E-03  2.841E-02  1.019E+05  7.592E-07  6.499E-02  7.510E-01  7.510E-01
  4.000E-03  3.472E-02  1.019E+05  1.433E-06  6.500E-02  7.510E-01  7.510E-01
  4.000E-03  4.103E-02  1.019E+05  7.270E-07  6.500E-02  7.510E-01  7.510E-01
  4.000E-03  4.734E-02  1.019E+05  1.560E-07  6.500E-02  7.510E-01  7.510E-01
  4.000E-03  5.366E-02  1.019E+05  7.211E-08  6.499E-02  7.510E-01  7.510E-01
  4.000E-03  5.997E-02  1.018E+05  1.917E-08  6.499E-02  7.510E-01  7.510E-01
  4.000E-03  6.628E-02  1.018E+05  6.982E-09  6.499E-02  7.510E-01  7.510E-01
  4.000E-03  7.259E-02  1.018E+05  2.514E-09  6.499E-02  7.510E-01  7.510E-01
  4.000E-03  7.891E-02  1.018E+05  1.411E-09  6.499E-02  7.510E-01  7.510E-01
  4.000E-03  8.522E-02  1.018E+05  1.050E-09  6.499E-02  7.510E-01  7.510E-01
  4.000E-03  9.153E-02  1.018E+05  9.284E-10  6.500E-02  7.510E-01  7.510E-01
  4.000E-03  9.784E-02  1.018E+05  8.522E-10  6.500E-02  7.510E-01  7.510E-01
  4.000E-03  1.042E-01  1.018E+05  7.076E-10  6.500E-02  7.510E-01  7.510E-01
  4.000E-03  1.105E-01  1.018E+05  5.970E-10  6.499E-02  7.510E-01  7.510E-01
  4.000E-03  1.168E-01  1.018E+05  5.125E-10  6.499E-02  7.510E-01  7.510E-01
  4.000E-03  1.231E-01  1.018E+05  3.849E-10  6.499E-02  7.510E-01  7.510E-01
  4.000E-03  1.294E-01  1.018E+05  3.208E-10  6.499E-02  7.510E-01  7.510E-01
  4.000E-03  1.357E-01  1.018E+05  3.255E-10  6.499E-02  7.510E-01  7.510E-01
  4.000E-03  1.420E-01  1.017E+05  2.825E-10  6.499E-02  7.510E-01  7.510E-01
  4.000E-03  1.483E-01  1.017E+05  2.073E-10  6.499E-02  7.510E-01  7.510E-01
  4.000E-03  1.547E-01  1.017E+05  1.563E-10  6.499E-02  7.510E-01  7.510E-01
  4.000E-03  1.610E-01  1.017E+05  1.213E-10  6.500E-02  7.510E-01  7.510E-01
  4.000E-03  1.673E-01  1.017E+05  7.170E-11  6.500E-02  7.510E-01  7.510E-01
  4.000E-03  1.736E-01  1.017E+05  2.525E-11  6.500E-02  7.510E-01  7.510E-01
  4.000E-03  1.799E-01  1.017E+05 -1.041E-11  6.499E-02  7.510E-01  7.510E-01
  4.000E-03  1.862E-01  1.017E+05  1.457E-11  6.499E-02  7.510E-01  7.510E-01
  4.000E-03  1.925E-01  1.017E+05  4.645E-11  6.499E-02  7.510E-01  7.510E-01
  4.000E-03  1.988E-01  1.017E+05  2.648E-11  6.499E-02  7.510E-01  7.510E-01
  4.000E-03  2.052E-01  1.017E+05  5.498E-12  6.499E-02  7.511E-01  7.511E-01
  4.000E-03  2.115E-01  1.017E+05  2.492E-11  6.499E-02  7.511E-01  7.511E-01
  4.000E-03  2.178E-01  1.017E+05  4.382E-11  6.499E-02  7.511E-01  7.511E-01
  4.000E-03  2.241E-01  1.017E+05  4.282E-13  6.499E-02  7.512E-01  7.512E-01
  4.000E-03  2.304E-01  1.016E+05  3.076E-11  6.500E-02  7.513E-01  7.513E-01
  4.000E-03  2.367E-01  1.016E+05  3.700E-11  6.500E-02  7.514E-01  7.514E-01
  4.000E-03  2.430E-01  1.016E+05 -1.286E-11  6.500E-02  7.515E-01  7.515E-01
  4.000E-03  2.493E-01  1.016E+05 -4.295E-11  6.499E-02  7.517E-01  7.517E-01
  4.000E-03  2.557E-01  1.016E+05 -1.846E-11  6.499E-02  7.519E-01  7.519E-01
  4.000E-03  2.620E-01  1.016E+05  1.253E-11  6.499E-02  7.522E-01  7.522E-01
  4.000E-03  2.683E-01  1.016E+05 -3.662E-12  6.499E-02  7.526E-01  7.526E-01
  4.000E-03  2.746E-01  1.016E+05  9.648E-13  6.499E-02  7.532E-01  7.532E-01
  4.000E-03  2.809E-01  1.016E+05 -1.315E-11  6.499E-02  7.539E-01  7.538E-01
  4.000E-03  2.872E-01  1.016E+05  3.228E-13  6.500E-02  7.547E-01  7.547E-01
  4.000E-03  2.935E-01  1.016E+05  3.116E-11  6.500E-02  7.559E-01  7.558E-01
  4.000E-03  2.998E-01  1.016E+05  8.666E-12  6.500E-02  7.573E-01  7.572E-01
  4.000E-03  3.062E-01  1.016E+05 -3.480E-11  6.499E-02  7.590E-01  7.590E-01
  4.000E-03  3.125E-01  1.015E+05 -2.503E-12  6.499E-02  7.612E-01  7.611E-01
  4.000E-03  3.188E-01  1.015E+05  2.701E-11  6.499E-02  7.640E-01  7.638E-01
  4.000E-03  3.251E-01  1.015E+05 -3.528E-12  6.499E-02  7.673E-01  7.672E-01
  4.000E-03  3.314E-01  1.015E+05 -3.177E-11  6.499E-02  7.714E-01  7.712E-01
  4.000E-03  3.377E-01  1.015E+05 -8.181E-12  6.499E-02  7.764E-01  7.761E-01
  4.000E-03  3.440E-01  1.015E+05  1.984E-11  6.499E-02  7.823E-01  7.821E-01
  4.000E-03  3.503E-01  1.015E+05 -1.868E-11  6.499E-02  7.895E-01  7.891E-01
  4.000E-03  3.567E-01  1.015E+05 -6.202E-12  6.500E-02  7.979E-01  7.975E-01
  4.000E-03  3.630E-01  1.015E+05  2.761E-11  6.500E-02  8.079E-01  8.074E-01
  4.000E-03  3.693E-01  1.015E+05  1.243E-11  6.500E-02  8.196E-01  8.191E-01
  4.000E-03  3.756E-01  1.015E+05 -2.913E-11  6.499E-02  8.332E-01  8.326E-01
  4.000E-03  3.819E-01  1.015E+05 -1.488E-12  6.499E-02  8.490E-01  8.483E-01
  4.000E-03  3.882E-01  1.015E+05  3.044E-11  6.499E-02  8.671E-01  8.662E-01
  4.000E-03  3.945E-01  1.015E+05  5.581E-12  6.499E-02  8.877E-01  8.867E-01
  4.000E-03  4.008E-01  1.014E+05 -2.236E-11  6.499E-02  9.110E-01  9.099E-01
  4.000E-03  4.072E-01  1.014E+05 -5.441E-12  6.499E-02  9.373E-01  9.361E-01
  4.000E-03  4.135E-01  1.014E+05  1.632E-11  6.499E-02  9.666E-01  9.652E-01
  4.000E-03  4.198E-01  1.014E+05 -2.170E-11  6.499E-02  9.991E-01  9.976E-01
  4.000E-03  4.261E-01  1.014E+05  1.613E-11  6.500E-02  1.035E+00  1.033E+00
  4.000E-03  4.324E-01  1.014E+05  1.277E-11  6.500E-02  1.074E+00  1.072E+00
  4.000E-03  4.387E-01  1.014E+05 -5.587E-12  6.500E-02  1.117E+00  1.115E+00
  4.000E-03  4.450E-01  1.014E+05 -8.857E-12  6.499E-02  1.163E+00  1.160E+00
  4.000E-03  4.513E-01  1.014E+05 -6.472E-12  6.499E-02  1.212E+00  1.209E+00
  4.000E-03  4.577E-01  1.014E+05  1.733E-11  6.499E-02  1.264E+00  1.261E+00
  4.000E-03  4.640E-01  1.014E+05 -1.867E-12  6.499E-02  1.319E+00  1.316E+00
  4.000E-03  4.703E-01  1.014E+05  6.767E-12  6.499E-02  1.376E+00  1.373E+00
  4.000E-03  4.766E-01  1.014E+05  1.151E-11  6.499E-02  1.435E+00  1.432E+00
  4.000E-03  4.829E-01  1.014E+05  9.866E-12  6.499E-02  1.495E+00  1.492E+00
  4.000E-03  4.892E-01  1.013E+05 -6.436E-12  6.499E-02  1.554E+00  1.552E+00
  4.000E-03  4.955E-01  1.013E+05 -2.144E-11  6.499E-02  1.609E+00  1.606E+00
  4.000E-03  5.018E-01  1.013E+05 -3.523E-11  6.500E-02  1.649E+00  1.647E+00
  4.000E-03  5.050E-01  1.013E+05 -3.523E-11  6.500E-02  1.649E+00  1.647E+00
  1.200E-02  0.000E+00  1.019E+05  1.109E-06  6.500E-02  7.505E-01  7.505E-01
  1.200E-02  3.156E-03  1.019E+05  1.109E-06  6.498E-02  7.505E-01  7.505E-01
  1.200E-02  9.469E-03  1.019E+05  4.972E-07  6.500E-02  7.505E-01  7.505E-01
  1.200E-02  1.578E-02  1.019E+05  2.964E-07  6.500E-02  7.505E-01  7.505E-01
  1.200E-02  2.209E-02  1.019E+05 -4.991E-07  6.500E-02  7.505E-01  7.505E-01
  1.200E-02  2.841E-02  1.019E+05  2.598E-06  6.500E-02  7.505E-01  7.505E-01
  1.200E-02  3.472E-02  1.019E+05  8.146E-06  6.500E-02  7.505E-01  7.505E-01
  1.200E-02  4.103E-02  1.019E+05  2.552E-06  6.501E-02  7.505E-01  7.505E-01
  1.200E-02  4.734E-02  1.019E+05 -6.636E-07  6.500E-02  7.505E-01  7.505E-01
  1.200E-02  5.366E-02  1.019E+05 -2.332E-08  6.500E-02  7.505E-01  7.505E-01
  1.200E-02  5.997E-02  1.018E+05 -4.738E-08  6.500E-02  7.505E-01  7.505E-01
  1.200E-02  6.628E-02  1.018E+05 -1.260E-08  6.500E-02  7.505E-01  7.505E-01
  1.200E-02  7.259E-02  1.018E+05 -4.107E-09  6.500E-02  7.505E-01  7.505E-01
  1.200E-02  7.891E-02  1.018E+05  4.824E-10  6.500E-02  7.505E-01  7.505E-01
  1.200E-02  8.522E-02  1.018E+05  2.027E-09  6.500E-02  7.505E-01  7.505E-01
  1.200E-02  9.153E-02  1.018E+05  2.477E-09  6.500E-02  7.505E-01  7.505E-01
  1.200E-02  9.784E-02  1.018E+05  2.465E-09  6.501E-02  7.505E-01  7.505E-01
  1.200E-02  1.042E-01  1.018E+05  2.209E-09  6.500E-02  7.505E-01  7.505E-01
  1.200E-02  1.105E-01  1.018E+05  1.897E-09  6.500E-02  7.505E-01  7.505E-01
  1.200E-02  1.168E-01  1.018E+05  1.605E-09  6.500E-02  7.505E-01  7.505E-01
  1.200E-02  1.231E-01  1.018E+05  1.315E-09  6.500E-02  7.505E-01  7.505E-01
  1.200E-02  1.294E-01  1.018E+05  1.086E-09  6.500E-02  7.505E-01  7.505E-01
  1.200E-02  1.357E-01  1.018E+05  9.086E-10  6.500E-02  7.505E-01  7.505E-01
  1.200E-02  1.420E-01  1.017E+05  6.847E-10  6.500E-02  7.505E-01  7.505E-01
  1.200E-02  1.483E-01  1.017E+05  4.493E-10  6.500E-02  7.505E-01  7.505E-01
  1.200E-02  1.547E-01  1.017E+05  2.916E-10  6.500E-02  7.505E-01  7.505E-01
  1.200E-02  1.610E-01  1.017E+05  1.989E-10  6.500E-02  7.505E-01  7.505E-01
  1.200E-02  1.673E-01  1.017E+05  1.300E-10  6.501E-02  7.505E-01  7.505E-01
  1.200E-02  1.736E-01  1.017E+05  9.934E-11  6.500E-02  7.505E-01  7.505E-01
  1.200E-02  1.799E-01  1.017E+05  1.040E-10  6.500E-02  7.505E-01  7.505E-01
  1.200E-02  1.862E-01  1.017E+05  1.686E-10  6.500E-02  7.505E-01  7.505E-01
  1.200E-02  1.925E-01  1.017E+05  1.984E-10  6.500E-02  7.505E-01  7.505E-01
  1.200E-02  1.988E-01  1.017E+05  1.439E-10  6.500E-02  7.505E-01  7.505E-01
  1.200E-02  2.052E-01  1.017E+05  7.402E-11  6.500E-02  7.505E-01  7.505E-01
  1.200E-02  2.115E-01  1.017E+05  6.724E-11  6.500E-02  7.506E-01  7.505E-01
  1.200E-02  2.178E-01  1.017E+05  7.016E-11  6.500E-02  7.506E-01  7.506E-01
  1.200E-02  2.241E-01  1.017E+05  8.124E-12  6.500E-02  7.506E-01  7.506E-01
  1.200E-02  2.304E-01  1.016E+05  1.262E-11  6.500E-02  7.507E-01  7.507E-01
  1.200E-02  2.367E-01  1.016E+05 -2.062E-11  6.501E-02  7.508E-01  7.508E-01
  1.200E-02  2.430E-01  1.016E+05 -9.972E-11  6.500E-02  7.510E-01  7.509E-01
  1.200E-02  2.493E-01  1.016E+05 -1.120E-10  6.500E-02  7.511E-01  7.511E-01
  1.200E-02  2.557E-01  1.016E+05 -2.420E-11  6.500E-02  7.514E-01  7.514E-01
  1.200E-02  2.620E-01  1.016E+05  6.636E-11  6.500E-02  7.517E-01  7.517E-01
  1.200E-02  2.683E-01  1.016E+05  7.909E-11  6.500E-02  7.521E-01  7.521E-01
  1.200E-02  2.746E-01  1.016E+05  6.637E-11  6.500E-02  7.526E-01  7.526E-01
  1.200E-02  2.809E-01  1.016E+05  1.161E-11  6.500E-02  7.533E-01  7.533E-01
  1.200E-02  2.872E-01  1.016E+05 -1.130E-11  6.500E-02  7.542E-01  7.542E-01
  1.200E-02  2.935E-01  1.016E+05  2.962E-12  6.501E-02  7.553E-01  7.553E-01
  1.200E-02  2.998E-01  1.016E+05 -2.567E-11  6.500E-02  7.567E-01  7.567E-01
  1.200E-02  3.062E-01  1.016E+05 -7.323E-11  6.500E-02  7.585E-01  7.584E-01
  1.200E-02  3.125E-01  1.015E+05 -3.797E-11  6.500E-02  7.607E-01  7.606E-01
  1.200E-02  3.188E-01  1.015E+05 -3.446E-12  6.500E-02  7.634E-01  7.633E-01
  1.200E-02  3.251E-01  1.015E+05 -1.180E-11  6.500E-02  7.668E-01  7.666E-01
  1.200E-02  3.314E-01  1.015E+05 -1.781E-11  6.500E-02  7.709E-01  7.707E-01
  1.200E-02  3.377E-01  1.015E+05  3.013E-11  6.500E-02  7.758E-01  7.756E-01
  1.200E-02  3.440E-01  1.015E+05  6.320E-11  6.500E-02  7.818E-01  7.815E-01
  1.200E-02  3.503E-01  1.015E+05  1.005E-11  6.500E-02  7.889E-01  7.886E-01
  1.200E-02  3.567E-01  1.015E+05  1.087E-12  6.500E-02  7.974E-01  7.970E-01
  1.200E-02  3.630E-01  1.015E+05  1.641E-11  6.501E-02  8.074E-01  8.069E-01
  1.200E-02  3.693E-01  1.015E+05 -9.063E-12  6.500E-02  8.191E-01  8.185E-01
  1.200E-02  3.756E-01  1.015E+05 -4.863E-11  6.500E-02  8.327E-01  8.321E-01
  1.200E-02  3.819E-01  1.015E+05 -1.110E-11  6.500E-02  8.485E-01  8.477E-01
  1.200E-02  3.882E-01  1.015E+05  1.298E-11  6.500E-02  8.665E-01  8.657E-01
  1.200E-02  3.945E-01  1.015E+05 -1.974E-11  6.500E-02  8.872E-01  8.862E-01
  1.200E-02  4.008E-01  1.014E+05 -4.207E-11  6.500E-02  9.105E-01  9.094E-01
  1.200E-02  4.072E-01  1.014E+05  1.532E-11  6.500E-02  9.368E-01  9.355E-01
  1.200E-02  4.135E-01  1.014E+05  7.915E-11  6.500E-02  9.661E-01  9.647E-01
  1.200E-02  4.198E-01  1.014E+05  5.531E-11  6.500E-02  9.986E-01  9.971E-01
  1.200E-02  4.261E-01  1.014E+05  6.928E-11  6.500E-02  1.034E+00  1.033E+00
  1.200E-02  4.324E-01  1.014E+05  2.436E-12  6.501E-02  1.074E+00  1.072E+00
  1.200E-02  4.387E-01  1.014E+05 -7.496E-11  6.500E-02  1.116E+00  1.114E+00
  1.200E-02  4.450E-01  1.014E+05 -8.631E-11  6.500E-02  1.162E+00  1.160E+00
  1.200E-02  4.513E-01  1.014E+05 -3.904E-11  6.500E-02  1.211E+00  1.209E+00
  1.200E-02  4.577E-01  1.014E+05  4.213E-11  6.500E-02  1.263E+00  1.261E+00
  1.200E-02  4.640E-01  1.014E+05  5.892E-11  6.500E-02  1.318E+00  1.316E+00
  1.200E-02  4.703E-01  1.014E+05  5.615E-11  6.500E-02  1.375E+00  1.373E+00
  1.200E-02  4.766E-01  1.014E+05  1.755E-11  6.500E-02  1.435E+00  1.432E+00
  1.200E-02  4.829E-01  1.014E+05 -3.759E-11  6.500E-02  1.495E+00  1.492E+00
  1.200E-02  4.892E-01  1.013E+05 -8.374E-11  6.500E-02  1.554E+00  1.551E+00
  1.200E-02  4.955E-01  1.013E+05 -1.122E-10  6.500E-02  1.609E+00  1.606E+00
  1.200E-02  5.018E-01  1.013E+05 -1.247E-10  6.500E-02  1.648E+00  1.646E+00
  1.200E-02  5.050E-01  1.013E+05 -1.247E-10  6.500E-02  1.648E+00  1.646E+00
  2.000E-02  0.000E+00  1.019E+05  5.386E-07  6.500E-02  7.494E-01  7.494E-01
  2.000E-02  3.156E-03  1.019E+05  5.386E-07  6.498E-02  7.494E-01  7.494E-01
  2.000E-02  9.469E-03  1.019E+05  3.616E-07  6.500E-02  7.494E-01  7.494E-01
  2.000E-02  1.578E-02  1.019E+05  2.741E-07  6.500E-02  7.494E-01  7.494E-01
  2.000E-02  2.209E-02  1.019E+05 -4.735E-07  6.500E-02  7.494E-01  7.494E-01
  2.000E-02  2.841E-02  1.019E+05  2.660E-06  6.501E-02  7.494E-01  7.494E-01
  2.000E-02  3.472E-02  1.019E+05  8.158E-06  6.500E-02  7.494E-01  7.494E-01
  2.000E-02  4.103E-02  1.019E+05  2.610E-06  6.500E-02  7.494E-01  7.494E-01
  2.000E-02  4.734E-02  1.019E+05 -6.335E-07  6.500E-02  7.494E-01  7.494E-01
  2.000E-02  5.366E-02  1.019E+05 -5.822E-11  6.500E-02  7.494E-01  7.494E-01
  2.000E-02  5.997E-02  1.018E+05 -3.267E-08  6.500E-02  7.494E-01  7.494E-01
  2.000E-02  6.628E-02  1.018E+05 -2.601E-09  6.500E-02  7.494E-01  7.494E-01
  2.000E-02  7.259E-02  1.018E+05  2.684E-09  6.500E-02  7.494E-01  7.494E-01
  2.000E-02  7.891E-02  1.018E+05  5.293E-09  6.500E-02  7.494E-01  7.494E-01
  2.000E-02  8.522E-02  1.018E+05  5.617E-09  6.500E-02  7.494E-01  7.494E-01
  2.000E-02  9.153E-02  1.018E+05  5.192E-09  6.500E-02  7.494E-01  7.494E-01
  2.000E-02  9.784E-02  1.018E+05  4.475E-09  6.501E-02  7.494E-01  7.494E-01
  2.000E-02  1.042E-01  1.018E+05  3.748E-09  6.500E-02  7.494E-01  7.494E-01
  2.000E-02  1.105E-01  1.018E+05  3.100E-09  6.500E-02  7.494E-01  7.494E-01
  2.000E-02  1.168E-01  1.018E+05  2.519E-09  6.500E-02  7.494E-01  7.494E-01
  2.000E-02  1.231E-01  1.018E+05  2.049E-09  6.500E-02  7.494E-01  7.494E-01
  2.000E-02  1.294E-01  1.018E+05  1.648E-09  6.500E-02  7.494E-01  7.494E-01
  2.000E-02  1.357E-01  1.018E+05  1.248E-09  6.500E-02  7.494E-01  7.494E-01
  2.000E-02  1.420E-01  1.017E+05  9.036E-10  6.500E-02  7.494E-01  7.494E-01
  2.000E-02  1.483E-01  1.017E+05  6.548E-10  6.500E-02  7.494E-01  7.494E-01
  2.000E-02  1.547E-01  1.017E+05  4.673E-10  6.500E-02  7.494E-01  7.494E-01
  2.000E-02  1.610E-01  1.017E+05  3.547E-10  6.500E-02  7.494E-01  7.494E-01
  2.000E-02  1.673E-01  1.017E+05  3.033E-10  6.501E-02  7.494E-01  7.494E-01
  2.000E-02  1.736E-01  1.017E+05  2.865E-10  6.500E-02  7.494E-01  7.494E-01
  2.000E-02  1.799E-01  1.017E+05  2.751E-10  6.500E-02  7.494E-01  7.494E-01
  2.000E-02  1.862E-01  1.017E+05  2.623E-10  6.500E-02  7.494E-01  7.494E-01
  2.000E-02  1.925E-01  1.017E+05  2.265E-10  6.500E-02  7.494E-01  7.494E-01
  2.000E-02  1.988E-01  1.017E+05  1.780E-10  6.500E-02  7.494E-01  7.494E-01
  2.000E-02  2.052E-01  1.017E+05  1.247E-10  6.500E-02  7.494E-01  7.494E-01
  2.000E-02  2.115E-01  1.017E+05  8.806E-11  6.500E-02  7.495E-01  7.495E-01
  2.000E-02  2.178E-01  1.017E+05  4.876E-11  6.500E-02  7.495E-01  7.495E-01
  2.000E-02  2.241E-01  1.017E+05  4.730E-12  6.500E-02  7.496E-01  7.496E-01
  2.000E-02  2.304E-01  1.016E+05 -3.124E-11  6.500E-02  7.496E-01  7.496E-01
  2.000E-02  2.367E-01  1.016E+05 -5.610E-11  6.501E-02  7.497E-01  7.497E-01
  2.000E-02  2.430E-01  1.016E+05 -5.916E-11  6.500E-02  7.499E-01  7.499E-01
  2.000E-02  2.493E-01  1.016E+05 -2.582E-11  6.500E-02  7.500E-01  7.500E-01
  2.000E-02  2.557E-01  1.016E+05  3.463E-11  6.500E-02  7.503E-01  7.503E-01
  2.000E-02  2.620E-01  1.016E+05  7.303E-11  6.500E-02  7.506E-01  7.506E-01
  2.000E-02  2.683E-01  1.016E+05  7.177E-11  6.500E-02  7.510E-01  7.510E-01
  2.000E-02  2.746E-01  1.016E+05  3.749E-11  6.500E-02  7.515E-01  7.515E-01
  2.000E-02  2.809E-01  1.016E+05 -8.377E-13  6.500E-02  7.522E-01  7.522E-01
  2.000E-02  2.872E-01  1.016E+05 -2.666E-11  6.500E-02  7.531E-01  7.531E-01
  2.000E-02  2.935E-01  1.016E+05 -3.392E-11  6.501E-02  7.542E-01  7.542E-01
  2.000E-02  2.998E-01  1.016E+05 -4.142E-11  6.500E-02  7.556E-01  7.556E-01
  2.000E-02  3.062E-01  1.016E+05 -4.871E-11  6.500E-02  7.574E-01  7.573E-01
  2.000E-02  3.125E-01  1.015E+05 -3.205E-11  6.500E-02  7.596E-01  7.595E-01
  2.000E-02  3.188E-01  1.015E+05 -9.864E-12  6.500E-02  7.623E-01  7.622E-01
  2.000E-02  3.251E-01  1.015E+05  1.456E-11  6.500E-02  7.657E-01  7.655E-01
  2.000E-02  3.314E-01  1.015E+05  2.775E-11  6.500E-02  7.698E-01  7.696E-01
  2.000E-02  3.377E-01  1.015E+05  3.886E-11  6.500E-02  7.747E-01  7.745E-01
  2.000E-02  3.440E-01  1.015E+05  2.899E-11  6.500E-02  7.807E-01  7.804E-01
  2.000E-02  3.503E-01  1.015E+05  4.684E-12  6.500E-02  7.878E-01  7.875E-01
  2.000E-02  3.567E-01  1.015E+05 -1.541E-11  6.500E-02  7.963E-01  7.959E-01
  2.000E-02  3.630E-01  1.015E+05 -2.038E-11  6.501E-02  8.063E-01  8.059E-01
  2.000E-02  3.693E-01  1.015E+05 -1.889E-11  6.500E-02  8.180E-01  8.175E-01
  2.000E-02  3.756E-01  1.015E+05 -1.734E-11  6.500E-02  8.317E-01  8.310E-01
  2.000E-02  3.819E-01  1.015E+05 -7.571E-12  6.500E-02  8.474E-01  8.467E-01
  2.000E-02  3.882E-01  1.015E+05 -9.037E-12  6.500E-02  8.655E-01  8.647E-01
  2.000E-02  3.945E-01  1.015E+05 -8.237E-12  6.500E-02  8.861E-01  8.852E-01
  2.000E-02  4.008E-01  1.014E+05  3.847E-12  6.500E-02  9.095E-01  9.084E-01
  2.000E-02  4.072E-01  1.014E+05  3.990E-11  6.500E-02  9.358E-01  9.345E-01
  2.000E-02  4.135E-01  1.014E+05  6.175E-11  6.500E-02  9.651E-01  9.638E-01
  2.000E-02  4.198E-01  1.014E+05  4.949E-11  6.500E-02  9.977E-01  9.962E-01
  2.000E-02  4.261E-01  1.014E+05  1.236E-11  6.500E-02  1.034E+00  1.032E+00
  2.000E-02  4.324E-01  1.014E+05 -3.776E-11  6.501E-02  1.073E+00  1.071E+00
  2.000E-02  4.387E-01  1.014E+05 -6.352E-11  6.500E-02  1.115E+00  1.113E+00
  2.000E-02  4.450E-01  1.014E+05 -4.313E-11  6.500E-02  1.161E+00  1.159E+00
  2.000E-02  4.513E-01  1.014E+05  1.103E-11  6.500E-02  1.210E+00  1.208E+00
  2.000E-02  4.577E-01  1.014E+05  5.686E-11  6.500E-02  1.262E+00  1.260E+00
  2.000E-02  4.640E-01  1.014E+05  6.739E-11  6.500E-02  1.317E+00  1.315E+00
  2.000E-02  4.703E-01  1.014E+05  3.621E-11  6.500E-02  1.375E+00  1.372E+00
  2.000E-02  4.766E-01  1.014E+05 -1.452E-11  6.500E-02  1.434E+00  1.431E+00
  2.000E-02  4.829E-01  1.014E+05 -6.660E-11  6.500E-02  1.494E+00  1.491E+00
  2.000E-02  4.892E-01  1.013E+05 -9.427E-11  6.500E-02  1.553E+00  1.551E+00
  2.000E-02  4.955E-01  1.013E+05 -1.158E-10  6.500E-02  1.608E+00  1.605E+00
  2.000E-02  5.018E-01  1.013E+05 -1.205E-10  6.500E-02  1.648E+00  1.646E+00
  2.000E-02  5.050E-01  1.013E+05 -1.205E-10  6.500E-02  1.648E+00  1.646E+00
  2.800E-02  0.000E+00  1.019E+05  4.110E-07  6.500E-02  7.478E-01  7.478E-01
  2.800E-02  3.156E-03  1.019E+05  4.110E-07  6.498E-02  7.478E-01  7.478E-01
  2.800E-02  9.469E-03  1.019E+05  3.558E-07  6.500E-02  7.478E-01  7.478E-01
  2.800E-02  1.578E-02  1.019E+05  3.477E-07  6.500E-02  7.478E-01  7.478E-01
  2.800E-02  2.209E-02  1.019E+05  3.357E-07  6.500E-02  7.478E-01  7.478E-01
  2.800E-02  2.841E-02  1.019E+05  9.433E-07  6.501E-02  7.478E-01  7.478E-01
  2.800E-02  3.472E-02  1.019E+05  9.450E-07  6.500E-02  7.478E-01  7.478E-01
  2.800E-02  4.103E-02  1.019E+05  8.753E-07  6.500E-02  7.478E-01  7.478E-01
  2.800E-02  4.734E-02  1.019E+05  1.945E-07  6.500E-02  7.478E-01  7.478E-01
  2.800E-02  5.366E-02  1.019E+05  1.262E-07  6.500E-02  7.478E-01  7.478E-01
  2.800E-02  5.997E-02  1.018E+05  5.405E-08  6.500E-02  7.478E-01  7.478E-01
  2.800E-02  6.628E-02  1.018E+05  3.242E-08  6.500E-02  7.478E-01  7.478E-01
  2.800E-02  7.259E-02  1.018E+05  2.053E-08  6.500E-02  7.478E-01  7.478E-01
  2.800E-02  7.891E-02  1.018E+05  1.460E-08  6.500E-02  7.478E-01  7.478E-01
  2.800E-02  8.522E-02  1.018E+05  1.096E-08  6.500E-02  7.478E-01  7.478E-01
  2.800E-02  9.153E-02  1.018E+05  8.446E-09  6.500E-02  7.478E-01  7.478E-01
  2.800E-02  9.784E-02  1.018E+05  6.561E-09  6.501E-02  7.478E-01  7.478E-01
  2.800E-02  1.042E-01  1.018E+05  5.144E-09  6.500E-02  7.478E-01  7.478E-01
  2.800E-02  1.105E-01  1.018E+05  4.077E-09  6.500E-02  7.478E-01  7.478E-01
  2.800E-02  1.168E-01  1.018E+05  3.227E-09  6.500E-02  7.478E-01  7.478E-01
  2.800E-02  1.231E-01  1.018E+05  2.564E-09  6.500E-02  7.478E-01  7.478E-01
  2.800E-02  1.294E-01  1.018E+05  2.014E-09  6.500E-02  7.478E-01  7.478E-01
  2.800E-02  1.357E-01  1.018E+05  1.523E-09  6.500E-02  7.478E-01  7.478E-01
  2.800E-02  1.420E-01  1.017E+05  1.181E-09  6.500E-02  7.478E-01  7.478E-01
  2.800E-02  1.483E-01  1.017E+05  9.336E-10  6.500E-02  7.478E-01  7.478E-01
  2.800E-02  1.547E-01  1.017E+05  7.215E-10  6.500E-02  7.478E-01  7.478E-01
  2.800E-02  1.610E-01  1.017E+05  5.535E-10  6.500E-02  7.478E-01  7.478E-01
  2.800E-02  1.673E-01  1.017E+05  4.414E-10  6.501E-02  7.478E-01  7.478E-01
  2.800E-02  1.736E-01  1.017E+05  3.775E-10  6.500E-02  7.478E-01  7.478E-01
  2.800E-02  1.799E-01  1.017E+05  3.346E-10  6.500E-02  7.478E-01  7.478E-01
  2.800E-02  1.862E-01  1.017E+05  2.943E-10  6.500E-02  7.478E-01  7.478E-01
  2.800E-02  1.925E-01  1.017E+05  2.340E-10  6.500E-02  7.478E-01  7.478E-01
  2.800E-02  1.988E-01  1.017E+05  1.705E-10  6.500E-02  7.478E-01  7.478E-01
  2.800E-02  2.052E-01  1.017E+05  1.090E-10  6.500E-02  7.478E-01  7.478E-01
  2.800E-02  2.115E-01  1.017E+05  6.873E-11  6.500E-02  7.479E-01  7.478E-01
  2.800E-02  2.178E-01  1.017E+05  3.781E-11  6.500E-02  7.479E-01  7.479E-01
  2.800E-02  2.241E-01  1.017E+05  2.139E-11  6.500E-02  7.479E-01  7.479E-01
  2.800E-02  2.304E-01  1.016E+05  8.151E-12  6.500E-02  7.480E-01  7.480E-01
  2.800E-02  2.367E-01  1.016E+05  2.795E-12  6.501E-02  7.481E-01  7.481E-01
  2.800E-02  2.430E-01  1.016E+05  7.026E-12  6.500E-02  7.483E-01  7.482E-01
  2.800E-02  2.493E-01  1.016E+05  1.893E-11  6.500E-02  7.484E-01  7.484E-01
  2.800E-02  2.557E-01  1.016E+05  3.473E-11  6.500E-02  7.487E-01  7.487E-01
  2.800E-02  2.620E-01  1.016E+05  3.106E-11  6.500E-02  7.490E-01  7.490E-01
  2.800E-02  2.683E-01  1.016E+05  1.528E-11  6.500E-02  7.494E-01  7.494E-01
  2.800E-02  2.746E-01  1.016E+05 -7.656E-12  6.500E-02  7.499E-01  7.499E-01
  2.800E-02  2.809E-01  1.016E+05 -1.531E-11  6.500E-02  7.506E-01  7.506E-01
  2.800E-02  2.872E-01  1.016E+05 -1.720E-11  6.500E-02  7.515E-01  7.515E-01
  2.800E-02  2.935E-01  1.016E+05 -1.439E-11  6.501E-02  7.526E-01  7.526E-01
  2.800E-02  2.998E-01  1.016E+05 -1.356E-11  6.500E-02  7.540E-01  7.540E-01
  2.800E-02  3.062E-01  1.016E+05 -1.657E-11  6.500E-02  7.558E-01  7.557E-01
  2.800E-02  3.125E-01  1.015E+05 -9.212E-12  6.500E-02  7.580E-01  7.579E-01
  2.800E-02  3.188E-01  1.015E+05 -2.968E-12  6.500E-02  7.607E-01  7.606E-01
  2.800E-02  3.251E-01  1.015E+05  6.718E-12  6.500E-02  7.641E-01  7.639E-01
  2.800E-02  3.314E-01  1.015E+05  3.842E-12  6.500E-02  7.682E-01  7.680E-01
  2.800E-02  3.377E-01  1.015E+05 -1.919E-13  6.500E-02  7.732E-01  7.729E-01