VARIABLES="XP","YP","P","U","V","TS","TF"
ZONE T="Zone 001"I=    82 J=    22 F=POINT
  0.000E+00  0.000E+00  1.019E+05  0.000E+00  0.000E+00  2.938E+02  2.938E+02
  0.000E+00  3.156E-03  1.019E+05  0.000E+00  0.000E+00  2.938E+02  2.938E+02
  0.000E+00  9.469E-03  1.019E+05  0.000E+00  0.000E+00  2.938E+02  2.938E+02
  0.000E+00  1.578E-02  1.019E+05  0.000E+00  0.000E+00  2.938E+02  2.938E+02
  0.000E+00  2.209E-02  1.019E+05  0.000E+00  0.000E+00  2.938E+02  2.938E+02
  0.000E+00  2.841E-02  1.019E+05  0.000E+00  0.000E+00  2.938E+02  2.938E+02
  0.000E+00  3.472E-02  1.019E+05  0.000E+00  0.000E+00  2.938E+02  2.938E+02
  0.000E+00  4.103E-02  1.019E+05  0.000E+00  0.000E+00  2.938E+02  2.938E+02
  0.000E+00  4.734E-02  1.019E+05  0.000E+00  0.000E+00  2.938E+02  2.938E+02
  0.000E+00  5.366E-02  1.019E+05  0.000E+00  0.000E+00  2.938E+02  2.938E+02
  0.000E+00  5.997E-02  1.018E+05  0.000E+00  0.000E+00  2.938E+02  2.938E+02
  0.000E+00  6.628E-02  1.018E+05  0.000E+00  0.000E+00  2.938E+02  2.938E+02
  0.000E+00  7.259E-02  1.018E+05  0.000E+00  0.000E+00  2.939E+02  2.939E+02
  0.000E+00  7.891E-02  1.018E+05  0.000E+00  0.000E+00  2.939E+02  2.939E+02
  0.000E+00  8.522E-02  1.018E+05  0.000E+00  0.000E+00  2.940E+02  2.940E+02
  0.000E+00  9.153E-02  1.018E+05  0.000E+00  0.000E+00  2.941E+02  2.941E+02
  0.000E+00  9.784E-02  1.018E+05  0.000E+00  0.000E+00  2.942E+02  2.942E+02
  0.000E+00  1.042E-01  1.018E+05  0.000E+00  0.000E+00  2.944E+02  2.944E+02
  0.000E+00  1.105E-01  1.018E+05  0.000E+00  0.000E+00  2.947E+02  2.947E+02
  0.000E+00  1.168E-01  1.018E+05  0.000E+00  0.000E+00  2.950E+02  2.950E+02
  0.000E+00  1.231E-01  1.018E+05  0.000E+00  0.000E+00  2.954E+02  2.954E+02
  0.000E+00  1.294E-01  1.018E+05  0.000E+00  0.000E+00  2.958E+02  2.958E+02
  0.000E+00  1.357E-01  1.018E+05  0.000E+00  0.000E+00  2.962E+02  2.962E+02
  0.000E+00  1.420E-01  1.017E+05  0.000E+00  0.000E+00  2.966E+02  2.966E+02
  0.000E+00  1.483E-01  1.017E+05  0.000E+00  0.000E+00  2.970E+02  2.970E+02
  0.000E+00  1.547E-01  1.017E+05  0.000E+00  0.000E+00  2.973E+02  2.972E+02
  0.000E+00  1.610E-01  1.017E+05  0.000E+00  0.000E+00  2.974E+02  2.974E+02
  0.000E+00  1.673E-01  1.017E+05  0.000E+00  0.000E+00  2.975E+02  2.975E+02
  0.000E+00  1.736E-01  1.017E+05  0.000E+00  0.000E+00  2.975E+02  2.975E+02
  0.000E+00  1.799E-01  1.017E+05  0.000E+00  0.000E+00  2.973E+02  2.973E+02
  0.000E+00  1.862E-01  1.017E+05  0.000E+00  0.000E+00  2.971E+02  2.971E+02
  0.000E+00  1.925E-01  1.017E+05  0.000E+00  0.000E+00  2.968E+02  2.969E+02
  0.000E+00  1.988E-01  1.017E+05  0.000E+00  0.000E+00  2.965E+02  2.965E+02
  0.000E+00  2.052E-01  1.017E+05  0.000E+00  0.000E+00  2.962E+02  2.962E+02
  0.000E+00  2.115E-01  1.017E+05  0.000E+00  0.000E+00  2.958E+02  2.958E+02
  0.000E+00  2.178E-01  1.017E+05  0.000E+00  0.000E+00  2.955E+02  2.955E+02
  0.000E+00  2.241E-01  1.017E+05  0.000E+00  0.000E+00  2.952E+02  2.952E+02
  0.000E+00  2.304E-01  1.016E+05  0.000E+00  0.000E+00  2.949E+02  2.949E+02
  0.000E+00  2.367E-01  1.016E+05  0.000E+00  0.000E+00  2.946E+02  2.946E+02
  0.000E+00  2.430E-01  1.016E+05  0.000E+00  0.000E+00  2.944E+02  2.944E+02
  0.000E+00  2.493E-01  1.016E+05  0.000E+00  0.000E+00  2.942E+02  2.942E+02
  0.000E+00  2.557E-01  1.016E+05  0.000E+00  0.000E+00  2.940E+02  2.940E+02
  0.000E+00  2.620E-01  1.016E+05  0.000E+00  0.000E+00  2.938E+02  2.938E+02
  0.000E+00  2.683E-01  1.016E+05  0.000E+00  0.000E+00  2.937E+02  2.937E+02
  0.000E+00  2.746E-01  1.016E+05  0.000E+00  0.000E+00  2.936E+02  2.936E+02
  0.000E+00  2.809E-01  1.016E+05  0.000E+00  0.000E+00  2.935E+02  2.936E+02
  0.000E+00  2.872E-01  1.016E+05  0.000E+00  0.000E+00  2.935E+02  2.935E+02
  0.000E+00  2.935E-01  1.016E+05  0.000E+00  0.000E+00  2.934E+02  2.934E+02
  0.000E+00  2.998E-01  1.016E+05  0.000E+00  0.000E+00  2.934E+02  2.934E+02
  0.000E+00  3.062E-01  1.016E+05  0.000E+00  0.000E+00  2.934E+02  2.934E+02
  0.000E+00  3.125E-01  1.015E+05  0.000E+00  0.000E+00  2.933E+02  2.933E+02
  0.000E+00  3.188E-01  1.015E+05  0.000E+00  0.000E+00  2.933E+02  2.933E+02
  0.000E+00  3.251E-01  1.015E+05  0.000E+00  0.000E+00  2.933E+02  2.933E+02
  0.000E+00  3.314E-01  1.015E+05  0.000E+00  0.000E+00  2.933E+02  2.933E+02
  0.000E+00  3.377E-01  1.015E+05  0.000E+00  0.000E+00  2.933E+02  2.933E+02
  0.000E+00  3.440E-01  1.015E+05  0.000E+00  0.000E+00  2.933E+02  2.933E+02
  0.000E+00  3.503E-01  1.015E+05  0.000E+00  0.000E+00  2.933E+02  2.933E+02
  0.000E+00  3.567E-01  1.015E+05  0.000E+00  0.000E+00  2.932E+02  2.932E+02
  0.000E+00  3.630E-01  1.015E+05  0.000E+00  0.000E+00  2.932E+02  2.932E+02
  0.000E+00  3.693E-01  1.015E+05  0.000E+00  0.000E+00  2.932E+02  2.932E+02
  0.000E+00  3.756E-01  1.015E+05  0.000E+00  0.000E+00  2.932E+02  2.932E+02
  0.000E+00  3.819E-01  1.015E+05  0.000E+00  0.000E+00  2.932E+02  2.932E+02
  0.000E+00  3.882E-01  1.015E+05  0.000E+00  0.000E+00  2.932E+02  2.932E+02
  0.000E+00  3.945E-01  1.015E+05  0.000E+00  0.000E+00  2.932E+02  2.932E+02
  0.000E+00  4.008E-01  1.014E+05  0.000E+00  0.000E+00  2.932E+02  2.932E+02
  0.000E+00  4.072E-01  1.014E+05  0.000E+00  0.000E+00  2.932E+02  2.932E+02
  0.000E+00  4.135E-01  1.014E+05  0.000E+00  0.000E+00  2.932E+02  2.932E+02
  0.000E+00  4.198E-01  1.014E+05  0.000E+00  0.000E+00  2.932E+02  2.932E+02
  0.000E+00  4.261E-01  1.014E+05  0.000E+00  0.000E+00  2.932E+02  2.932E+02
  0.000E+00  4.324E-01  1.014E+05  0.000E+00  0.000E+00  2.932E+02  2.932E+02
  0.000E+00  4.387E-01  1.014E+05  0.000E+00  0.000E+00  2.932E+02  2.932E+02
  0.000E+00  4.450E-01  1.014E+05  0.000E+00  0.000E+00  2.932E+02  2.932E+02
  0.000E+00  4.513E-01  1.014E+05  0.000E+00  0.000E+00  2.932E+02  2.932E+02
  0.000E+00  4.577E-01  1.014E+05  0.000E+00  0.000E+00  2.931E+02  2.931E+02
  0.000E+00  4.640E-01  1.014E+05  0.000E+00  0.000E+00  2.931E+02  2.931E+02
  0.000E+00  4.703E-01  1.014E+05  0.000E+00  0.000E+00  2.931E+02  2.931E+02
  0.000E+00  4.766E-01  1.014E+05  0.000E+00  0.000E+00  2.931E+02  2.931E+02
  0.000E+00  4.829E-01  1.014E+05  0.000E+00  0.000E+00  2.931E+02  2.931E+02
  0.000E+00  4.892E-01  1.013E+05  0.000E+00  0.000E+00  2.931E+02  2.931E+02
  0.000E+00  4.955E-01  1.013E+05  0.000E+00  0.000E+00  2.931E+02  2.931E+02
  0.000E+00  5.018E-01  1.013E+05  0.000E+00  0.000E+00  2.931E+02  2.931E+02
  0.000E+00  5.050E-01  1.013E+05  0.000E+00  0.000E+00  2.931E+02  2.931E+02
  4.000E-03  0.000E+00  1.019E+05  8.159E-07  6.500E-02  2.938E+02  2.938E+02
  4.000E-03  3.156E-03  1.019E+05  8.159E-07  6.498E-02  2.938E+02  2.938E+02
  4.000E-03  9.469E-03  1.019E+05  3.451E-07  6.499E-02  2.938E+02  2.938E+02
  4.000E-03  1.578E-02  1.019E+05  2.431E-07  6.500E-02  2.938E+02  2.938E+02
  4.000E-03  2.209E-02  1.019E+05  2.385E-07  6.499E-02  2.938E+02  2.938E+02
  4.000E-03  2.841E-02  1.019E+05  7.592E-07  6.499E-02  2.938E+02  2.938E+02
  4.000E-03  3.472E-02  1.019E+05  1.433E-06  6.500E-02  2.938E+02  2.938E+02
  4.000E-03  4.103E-02  1.019E+05  7.270E-07  6.500E-02  2.938E+02  2.938E+02
  4.000E-03  4.734E-02  1.019E+05  1.560E-07  6.500E-02  2.938E+02  2.938E+02
  4.000E-03  5.366E-02  1.019E+05  7.211E-08  6.499E-02  2.938E+02  2.938E+02
  4.000E-03  5.997E-02  1.018E+05  1.917E-08  6.499E-02  2.938E+02  2.938E+02
  4.000E-03  6.628E-02  1.018E+05  6.982E-09  6.499E-02  2.938E+02  2.938E+02
  4.000E-03  7.259E-02  1.018E+05  2.514E-09  6.499E-02  2.939E+02  2.939E+02
  4.000E-03  7.891E-02  1.018E+05  1.418E-09  6.499E-02  2.939E+02  2.939E+02
  4.000E-03  8.522E-02  1.018E+05  1.085E-09  6.499E-02  2.940E+02  2.940E+02
  4.000E-03  9.153E-02  1.018E+05  9.370E-10  6.500E-02  2.941E+02  2.941E+02
  4.000E-03  9.784E-02  1.018E+05  8.306E-10  6.500E-02  2.942E+02  2.942E+02
  4.000E-03  1.042E-01  1.018E+05  7.226E-10  6.500E-02  2.944E+02  2.944E+02
  4.000E-03  1.105E-01  1.018E+05  5.931E-10  6.499E-02  2.947E+02  2.947E+02
  4.000E-03  1.168E-01  1.018E+05  4.896E-10  6.499E-02  2.950E+02  2.950E+02
  4.000E-03  1.231E-01  1.018E+05  3.811E-10  6.499E-02  2.954E+02  2.954E+02
  4.000E-03  1.294E-01  1.018E+05  3.213E-10  6.499E-02  2.958E+02  2.958E+02
  4.000E-03  1.357E-01  1.018E+05  3.241E-10  6.499E-02  2.962E+02  2.962E+02
  4.000E-03  1.420E-01  1.017E+05  2.788E-10  6.499E-02  2.966E+02  2.966E+02
  4.000E-03  1.483E-01  1.017E+05  2.053E-10  6.499E-02  2.970E+02  2.970E+02
  4.000E-03  1.547E-01  1.017E+05  1.550E-10  6.499E-02  2.973E+02  2.972E+02
  4.000E-03  1.610E-01  1.017E+05  1.207E-10  6.500E-02  2.974E+02  2.974E+02
  4.000E-03  1.673E-01  1.017E+05  7.164E-11  6.500E-02  2.975E+02  2.975E+02
  4.000E-03  1.736E-01  1.017E+05  2.549E-11  6.500E-02  2.975E+02  2.975E+02
  4.000E-03  1.799E-01  1.017E+05 -9.546E-12  6.499E-02  2.973E+02  2.973E+02
  4.000E-03  1.862E-01  1.017E+05  1.621E-11  6.499E-02  2.971E+02  2.971E+02
  4.000E-03  1.925E-01  1.017E+05  5.054E-11  6.499E-02  2.968E+02  2.969E+02
  4.000E-03  1.988E-01  1.017E+05  3.432E-11  6.499E-02  2.965E+02  2.965E+02
  4.000E-03  2.052E-01  1.017E+05  3.392E-11  6.499E-02  2.962E+02  2.962E+02
  4.000E-03  2.115E-01  1.017E+05  2.689E-11  6.499E-02  2.958E+02  2.958E+02
  4.000E-03  2.178E-01  1.017E+05  1.825E-11  6.499E-02  2.955E+02  2.955E+02
  4.000E-03  2.241E-01  1.017E+05  9.321E-12  6.499E-02  2.952E+02  2.952E+02
  4.000E-03  2.304E-01  1.016E+05 -1.211E-11  6.500E-02  2.949E+02  2.949E+02
  4.000E-03  2.367E-01  1.016E+05 -2.516E-11  6.500E-02  2.946E+02  2.946E+02
  4.000E-03  2.430E-01  1.016E+05  7.621E-12  6.500E-02  2.944E+02  2.944E+02
  4.000E-03  2.493E-01  1.016E+05 -8.175E-12  6.499E-02  2.942E+02  2.942E+02
  4.000E-03  2.557E-01  1.016E+05 -5.089E-12  6.499E-02  2.940E+02  2.940E+02
  4.000E-03  2.620E-01  1.016E+05  2.174E-11  6.499E-02  2.938E+02  2.938E+02
  4.000E-03  2.683E-01  1.016E+05  5.820E-12  6.499E-02  2.937E+02  2.937E+02
  4.000E-03  2.746E-01  1.016E+05  1.498E-11  6.499E-02  2.936E+02  2.936E+02
  4.000E-03  2.809E-01  1.016E+05  2.300E-11  6.499E-02  2.935E+02  2.936E+02
  4.000E-03  2.872E-01  1.016E+05  2.281E-11  6.500E-02  2.935E+02  2.935E+02
  4.000E-03  2.935E-01  1.016E+05 -2.891E-11  6.500E-02  2.934E+02  2.934E+02
  4.000E-03  2.998E-01  1.016E+05 -3.051E-11  6.500E-02  2.934E+02  2.934E+02
  4.000E-03  3.062E-01  1.016E+05 -1.714E-11  6.499E-02  2.934E+02  2.934E+02
  4.000E-03  3.125E-01  1.015E+05  2.715E-12  6.499E-02  2.933E+02  2.933E+02
  4.000E-03  3.188E-01  1.015E+05  3.512E-11  6.499E-02  2.933E+02  2.933E+02
  4.000E-03  3.251E-01  1.015E+05  8.727E-12  6.499E-02  2.933E+02  2.933E+02
  4.000E-03  3.314E-01  1.015E+05  3.197E-12  6.499E-02  2.933E+02  2.933E+02
  4.000E-03  3.377E-01  1.015E+05 -1.048E-13  6.499E-02  2.933E+02  2.933E+02
  4.000E-03  3.440E-01  1.015E+05  3.427E-12  6.499E-02  2.933E+02  2.933E+02
  4.000E-03  3.503E-01  1.015E+05  9.748E-12  6.499E-02  2.933E+02  2.933E+02
  4.000E-03  3.567E-01  1.015E+05  1.491E-11  6.500E-02  2.932E+02  2.932E+02
  4.000E-03  3.630E-01  1.015E+05 -2.697E-11  6.500E-02  2.932E+02  2.932E+02
  4.000E-03  3.693E-01  1.015E+05 -2.871E-11  6.500E-02  2.932E+02  2.932E+02
  4.000E-03  3.756E-01  1.015E+05 -2.171E-11  6.499E-02  2.932E+02  2.932E+02
  4.000E-03  3.819E-01  1.015E+05 -2.569E-12  6.499E-02  2.932E+02  2.932E+02
  4.000E-03  3.882E-01  1.015E+05  3.378E-11  6.499E-02  2.932E+02  2.932E+02
  4.000E-03  3.945E-01  1.015E+05  1.378E-11  6.499E-02  2.932E+02  2.932E+02
  4.000E-03  4.008E-01  1.014E+05  8.331E-12  6.499E-02  2.932E+02  2.932E+02
  4.000E-03  4.072E-01  1.014E+05 -2.903E-12  6.499E-02  2.932E+02  2.932E+02
  4.000E-03  4.135E-01  1.014E+05 -9.711E-12  6.499E-02  2.932E+02  2.932E+02
  4.000E-03  4.198E-01  1.014E+05 -8.044E-12  6.499E-02  2.932E+02  2.932E+02
  4.000E-03  4.261E-01  1.014E+05 -1.510E-11  6.500E-02  2.932E+02  2.932E+02
  4.000E-03  4.324E-01  1.014E+05  1.278E-12  6.500E-02  2.932E+02  2.932E+02
  4.000E-03  4.387E-01  1.014E+05  1.403E-11  6.500E-02  2.932E+02  2.932E+02
  4.000E-03  4.450E-01  1.014E+05 -2.763E-11  6.499E-02  2.932E+02  2.932E+02
  4.000E-03  4.513E-01  1.014E+05 -9.385E-12  6.499E-02  2.932E+02  2.932E+02
  4.000E-03  4.577E-01  1.014E+05  1.570E-11  6.499E-02  2.931E+02  2.931E+02
  4.000E-03  4.640E-01  1.014E+05 -2.508E-12  6.499E-02  2.931E+02  2.931E+02
  4.000E-03  4.703E-01  1.014E+05  6.378E-12  6.499E-02  2.931E+02  2.931E+02
  4.000E-03  4.766E-01  1.014E+05  1.110E-11  6.499E-02  2.931E+02  2.931E+02
  4.000E-03  4.829E-01  1.014E+05  8.652E-12  6.499E-02  2.931E+02  2.931E+02
  4.000E-03  4.892E-01  1.013E+05 -1.004E-11  6.499E-02  2.931E+02  2.931E+02
  4.000E-03  4.955E-01  1.013E+05 -4.064E-11  6.499E-02  2.931E+02  2.931E+02
  4.000E-03  5.018E-01  1.013E+05 -5.683E-11  6.500E-02  2.931E+02  2.931E+02
  4.000E-03  5.050E-01  1.013E+05 -5.683E-11  6.500E-02  2.931E+02  2.931E+02
  1.200E-02  0.000E+00  1.019E+05  1.109E-06  6.500E-02  2.938E+02  2.938E+02
  1.200E-02  3.156E-03  1.019E+05  1.109E-06  6.498E-02  2.938E+02  2.938E+02
  1.200E-02  9.469E-03  1.019E+05  4.972E-07  6.500E-02  2.938E+02  2.938E+02
  1.200E-02  1.578E-02  1.019E+05  2.964E-07  6.500E-02  2.938E+02  2.938E+02
  1.200E-02  2.209E-02  1.019E+05 -4.992E-07  6.500E-02  2.938E+02  2.938E+02
  1.200E-02  2.841E-02  1.019E+05  2.598E-06  6.500E-02  2.938E+02  2.938E+02
  1.200E-02  3.472E-02  1.019E+05  8.146E-06  6.500E-02  2.938E+02  2.938E+02
  1.200E-02  4.103E-02  1.019E+05  2.552E-06  6.501E-02  2.938E+02  2.938E+02
  1.200E-02  4.734E-02  1.019E+05 -6.636E-07  6.500E-02  2.938E+02  2.938E+02
  1.200E-02  5.366E-02  1.019E+05 -2.332E-08  6.500E-02  2.938E+02  2.938E+02
  1.200E-02  5.997E-02  1.018E+05 -4.739E-08  6.500E-02  2.938E+02  2.938E+02
  1.200E-02  6.628E-02  1.018E+05 -1.261E-08  6.500E-02  2.938E+02  2.938E+02
  1.200E-02  7.259E-02  1.018E+05 -4.137E-09  6.500E-02  2.939E+02  2.939E+02
  1.200E-02  7.891E-02  1.018E+05  4.657E-10  6.500E-02  2.939E+02  2.939E+02
  1.200E-02  8.522E-02  1.018E+05  2.095E-09  6.500E-02  2.940E+02  2.940E+02
  1.200E-02  9.153E-02  1.018E+05  2.519E-09  6.500E-02  2.941E+02  2.941E+02
  1.200E-02  9.784E-02  1.018E+05  2.443E-09  6.501E-02  2.942E+02  2.942E+02
  1.200E-02  1.042E-01  1.018E+05  2.203E-09  6.500E-02  2.944E+02  2.944E+02
  1.200E-02  1.105E-01  1.018E+05  1.893E-09  6.500E-02  2.947E+02  2.947E+02
  1.200E-02  1.168E-01  1.018E+05  1.608E-09  6.500E-02  2.950E+02  2.950E+02
  1.200E-02  1.231E-01  1.018E+05  1.322E-09  6.500E-02  2.954E+02  2.954E+02
  1.200E-02  1.294E-01  1.018E+05  1.114E-09  6.500E-02  2.958E+02  2.958E+02
  1.200E-02  1.357E-01  1.018E+05  9.084E-10  6.500E-02  2.962E+02  2.962E+02
  1.200E-02  1.420E-01  1.017E+05  6.545E-10  6.500E-02  2.966E+02  2.966E+02
  1.200E-02  1.483E-01  1.017E+05  4.404E-10  6.500E-02  2.970E+02  2.970E+02
  1.200E-02  1.547E-01  1.017E+05  2.869E-10  6.500E-02  2.973E+02  2.972E+02
  1.200E-02  1.610E-01  1.017E+05  1.971E-10  6.500E-02  2.974E+02  2.974E+02
  1.200E-02  1.673E-01  1.017E+05  1.297E-10  6.501E-02  2.975E+02  2.975E+02
  1.200E-02  1.736E-01  1.017E+05  1.000E-10  6.500E-02  2.975E+02  2.975E+02
  1.200E-02  1.799E-01  1.017E+05  1.057E-10  6.500E-02  2.973E+02  2.973E+02
  1.200E-02  1.862E-01  1.017E+05  1.717E-10  6.500E-02  2.971E+02  2.971E+02
  1.200E-02  1.925E-01  1.017E+05  2.046E-10  6.500E-02  2.968E+02  2.969E+02
  1.200E-02  1.988E-01  1.017E+05  1.546E-10  6.500E-02  2.965E+02  2.965E+02
  1.200E-02  2.052E-01  1.017E+05  1.071E-10  6.500E-02  2.962E+02  2.962E+02
  1.200E-02  2.115E-01  1.017E+05  6.935E-11  6.500E-02  2.958E+02  2.958E+02
  1.200E-02  2.178E-01  1.017E+05  3.947E-11  6.500E-02  2.955E+02  2.955E+02
  1.200E-02  2.241E-01  1.017E+05  1.355E-11  6.500E-02  2.952E+02  2.952E+02
  1.200E-02  2.304E-01  1.016E+05 -4.166E-11  6.500E-02  2.949E+02  2.949E+02
  1.200E-02  2.367E-01  1.016E+05 -9.504E-11  6.501E-02  2.946E+02  2.946E+02
  1.200E-02  2.430E-01  1.016E+05 -7.745E-11  6.500E-02  2.944E+02  2.944E+02
  1.200E-02  2.493E-01  1.016E+05 -6.969E-11  6.500E-02  2.942E+02  2.942E+02
  1.200E-02  2.557E-01  1.016E+05 -4.249E-12  6.500E-02  2.940E+02  2.940E+02
  1.200E-02  2.620E-01  1.016E+05  8.177E-11  6.500E-02  2.938E+02  2.938E+02
  1.200E-02  2.683E-01  1.016E+05  9.506E-11  6.500E-02  2.937E+02  2.937E+02
  1.200E-02  2.746E-01  1.016E+05  8.766E-11  6.500E-02  2.936E+02  2.936E+02
  1.200E-02  2.809E-01  1.016E+05  5.626E-11  6.500E-02  2.935E+02  2.936E+02
  1.200E-02  2.872E-01  1.016E+05  1.419E-11  6.500E-02  2.935E+02  2.935E+02
  1.200E-02  2.935E-01  1.016E+05 -6.776E-11  6.501E-02  2.934E+02  2.934E+02
  1.200E-02  2.998E-01  1.016E+05 -7.348E-11  6.500E-02  2.934E+02  2.934E+02
  1.200E-02  3.062E-01  1.016E+05 -5.459E-11  6.500E-02  2.934E+02  2.934E+02
  1.200E-02  3.125E-01  1.015E+05 -3.025E-11  6.500E-02  2.933E+02  2.933E+02
  1.200E-02  3.188E-01  1.015E+05  9.662E-12  6.500E-02  2.933E+02  2.933E+02
  1.200E-02  3.251E-01  1.015E+05  7.412E-12  6.500E-02  2.933E+02  2.933E+02
  1.200E-02  3.314E-01  1.015E+05  2.714E-11  6.500E-02  2.933E+02  2.933E+02
  1.200E-02  3.377E-01  1.015E+05  4.389E-11  6.500E-02  2.933E+02  2.933E+02
  1.200E-02  3.440E-01  1.015E+05  4.838E-11  6.500E-02  2.933E+02  2.933E+02
  1.200E-02  3.503E-01  1.015E+05  4.427E-11  6.500E-02  2.933E+02  2.933E+02
  1.200E-02  3.567E-01  1.015E+05  2.413E-11  6.500E-02  2.932E+02  2.932E+02
  1.200E-02  3.630E-01  1.015E+05 -4.874E-11  6.501E-02  2.932E+02  2.932E+02
  1.200E-02  3.693E-01  1.015E+05 -6.141E-11  6.500E-02  2.932E+02  2.932E+02
  1.200E-02  3.756E-01  1.015E+05 -4.567E-11  6.500E-02  2.932E+02  2.932E+02
  1.200E-02  3.819E-01  1.015E+05 -1.491E-11  6.500E-02  2.932E+02  2.932E+02
  1.200E-02  3.882E-01  1.015E+05  1.630E-11  6.500E-02  2.932E+02  2.932E+02
  1.200E-02  3.945E-01  1.015E+05 -9.272E-12  6.500E-02  2.932E+02  2.932E+02
  1.200E-02  4.008E-01  1.014E+05 -6.302E-12  6.500E-02  2.932E+02  2.932E+02
  1.200E-02  4.072E-01  1.014E+05  1.803E-11  6.500E-02  2.932E+02  2.932E+02
  1.200E-02  4.135E-01  1.014E+05  4.796E-11  6.500E-02  2.932E+02  2.932E+02
  1.200E-02  4.198E-01  1.014E+05  6.698E-11  6.500E-02  2.932E+02  2.932E+02
  1.200E-02  4.261E-01  1.014E+05  3.016E-11  6.500E-02  2.932E+02  2.932E+02
  1.200E-02  4.324E-01  1.014E+05 -1.445E-11  6.501E-02  2.932E+02  2.932E+02
  1.200E-02  4.387E-01  1.014E+05 -5.524E-11  6.500E-02  2.932E+02  2.932E+02
  1.200E-02  4.450E-01  1.014E+05 -1.081E-10  6.500E-02  2.932E+02  2.932E+02
  1.200E-02  4.513E-01  1.014E+05 -4.316E-11  6.500E-02  2.932E+02  2.932E+02
  1.200E-02  4.577E-01  1.014E+05  3.965E-11  6.500E-02  2.931E+02  2.931E+02
  1.200E-02  4.640E-01  1.014E+05  5.779E-11  6.500E-02  2.931E+02  2.931E+02
  1.200E-02  4.703E-01  1.014E+05  5.536E-11  6.500E-02  2.931E+02  2.931E+02
  1.200E-02  4.766E-01  1.014E+05  1.700E-11  6.500E-02  2.931E+02  2.931E+02
  1.200E-02  4.829E-01  1.014E+05 -3.805E-11  6.500E-02  2.931E+02  2.931E+02
  1.200E-02  4.892E-01  1.013E+05 -8.411E-11  6.500E-02  2.931E+02  2.931E+02
  1.200E-02  4.955E-01  1.013E+05 -1.118E-10  6.500E-02  2.931E+02  2.931E+02
  1.200E-02  5.018E-01  1.013E+05 -1.243E-10  6.500E-02  2.931E+02  2.931E+02
  1.200E-02  5.050E-01  1.013E+05 -1.243E-10  6.500E-02  2.931E+02  2.931E+02
  2.000E-02  0.000E+00  1.019E+05  5.386E-07  6.500E-02  2.938E+02  2.938E+02
  2.000E-02  3.156E-03  1.019E+05  5.386E-07  6.498E-02  2.938E+02  2.938E+02
  2.000E-02  9.469E-03  1.019E+05  3.616E-07  6.500E-02  2.938E+02  2.938E+02
  2.000E-02  1.578E-02  1.019E+05  2.741E-07  6.500E-02  2.938E+02  2.938E+02
  2.000E-02  2.209E-02  1.019E+05 -4.735E-07  6.500E-02  2.938E+02  2.938E+02
  2.000E-02  2.841E-02  1.019E+05  2.660E-06  6.501E-02  2.938E+02  2.938E+02
  2.000E-02  3.472E-02  1.019E+05  8.158E-06  6.500E-02  2.938E+02  2.938E+02
  2.000E-02  4.103E-02  1.019E+05  2.610E-06  6.500E-02  2.938E+02  2.938E+02
  2.000E-02  4.734E-02  1.019E+05 -6.335E-07  6.500E-02  2.938E+02  2.938E+02
  2.000E-02  5.366E-02  1.019E+05 -5.261E-11  6.500E-02  2.938E+02  2.938E+02
  2.000E-02  5.997E-02  1.018E+05 -3.266E-08  6.500E-02  2.938E+02  2.938E+02
  2.000E-02  6.628E-02  1.018E+05 -2.596E-09  6.500E-02  2.938E+02  2.938E+02
  2.000E-02  7.259E-02  1.018E+05  2.690E-09  6.500E-02  2.939E+02  2.939E+02
  2.000E-02  7.891E-02  1.018E+05  5.298E-09  6.500E-02  2.939E+02  2.939E+02
  2.000E-02  8.522E-02  1.018E+05  5.628E-09  6.500E-02  2.940E+02  2.940E+02
  2.000E-02  9.153E-02  1.018E+05  5.197E-09  6.500E-02  2.941E+02  2.941E+02
  2.000E-02  9.784E-02  1.018E+05  4.464E-09  6.501E-02  2.942E+02  2.942E+02
  2.000E-02  1.042E-01  1.018E+05  3.719E-09  6.500E-02  2.944E+02  2.944E+02
  2.000E-02  1.105E-01  1.018E+05  3.098E-09  6.500E-02  2.947E+02  2.947E+02
  2.000E-02  1.168E-01  1.018E+05  2.547E-09  6.500E-02  2.950E+02  2.950E+02
  2.000E-02  1.231E-01  1.018E+05  2.075E-09  6.500E-02  2.954E+02  2.954E+02
  2.000E-02  1.294E-01  1.018E+05  1.648E-09  6.500E-02  2.958E+02  2.958E+02
  2.000E-02  1.357E-01  1.018E+05  1.224E-09  6.500E-02  2.962E+02  2.962E+02
  2.000E-02  1.420E-01  1.017E+05  8.976E-10  6.500E-02  2.966E+02  2.966E+02
  2.000E-02  1.483E-01  1.017E+05  6.520E-10  6.500E-02  2.970E+02  2.970E+02
  2.000E-02  1.547E-01  1.017E+05  4.664E-10  6.500E-02  2.973E+02  2.972E+02
  2.000E-02  1.610E-01  1.017E+05  3.547E-10  6.500E-02  2.974E+02  2.974E+02
  2.000E-02  1.673E-01  1.017E+05  3.038E-10  6.501E-02  2.975E+02  2.975E+02
  2.000E-02  1.736E-01  1.017E+05  2.874E-10  6.500E-02  2.975E+02  2.975E+02
  2.000E-02  1.799E-01  1.017E+05  2.766E-10  6.500E-02  2.973E+02  2.973E+02
  2.000E-02  1.862E-01  1.017E+05  2.648E-10  6.500E-02  2.971E+02  2.971E+02
  2.000E-02  1.925E-01  1.017E+05  2.302E-10  6.500E-02  2.968E+02  2.969E+02
  2.000E-02  1.988E-01  1.017E+05  1.829E-10  6.500E-02  2.965E+02  2.965E+02
  2.000E-02  2.052E-01  1.017E+05  1.316E-10  6.500E-02  2.962E+02  2.962E+02
  2.000E-02  2.115E-01  1.017E+05  8.798E-11  6.500E-02  2.958E+02  2.958E+02
  2.000E-02  2.178E-01  1.017E+05  4.069E-11  6.500E-02  2.955E+02  2.955E+02
  2.000E-02  2.241E-01  1.017E+05 -1.594E-12  6.500E-02  2.952E+02  2.952E+02
  2.000E-02  2.304E-01  1.016E+05 -4.851E-11  6.500E-02  2.949E+02  2.949E+02
  2.000E-02  2.367E-01  1.016E+05 -7.403E-11  6.501E-02  2.946E+02  2.946E+02
  2.000E-02  2.430E-01  1.016E+05 -5.681E-11  6.500E-02  2.944E+02  2.944E+02
  2.000E-02  2.493E-01  1.016E+05 -1.436E-11  6.500E-02  2.942E+02  2.942E+02
  2.000E-02  2.557E-01  1.016E+05  4.570E-11  6.500E-02  2.940E+02  2.940E+02
  2.000E-02  2.620E-01  1.016E+05  8.396E-11  6.500E-02  2.938E+02  2.938E+02
  2.000E-02  2.683E-01  1.016E+05  8.312E-11  6.500E-02  2.937E+02  2.937E+02
  2.000E-02  2.746E-01  1.016E+05  4.965E-11  6.500E-02  2.936E+02  2.936E+02
  2.000E-02  2.809E-01  1.016E+05  1.238E-11  6.500E-02  2.936E+02  2.936E+02
  2.000E-02  2.872E-01  1.016E+05 -2.187E-11  6.500E-02  2.935E+02  2.935E+02
  2.000E-02  2.935E-01  1.016E+05 -4.878E-11  6.501E-02  2.934E+02  2.934E+02
  2.000E-02  2.998E-01  1.016E+05 -5.368E-11  6.500E-02  2.934E+02  2.934E+02
  2.000E-02  3.062E-01  1.016E+05 -4.730E-11  6.500E-02  2.934E+02  2.934E+02
  2.000E-02  3.125E-01  1.015E+05 -2.757E-11  6.500E-02  2.933E+02  2.933E+02
  2.000E-02  3.188E-01  1.015E+05 -1.296E-12  6.500E-02  2.933E+02  2.933E+02
  2.000E-02  3.251E-01  1.015E+05  2.631E-11  6.500E-02  2.933E+02  2.933E+02
  2.000E-02  3.314E-01  1.015E+05  4.369E-11  6.500E-02  2.933E+02  2.933E+02
  2.000E-02  3.377E-01  1.015E+05  4.870E-11  6.500E-02  2.933E+02  2.933E+02
  2.000E-02  3.440E-01  1.015E+05  3.252E-11  6.500E-02  2.933E+02  2.933E+02
  2.000E-02  3.503E-01  1.015E+05  1.318E-11  6.500E-02  2.933E+02  2.933E+02
  2.000E-02  3.567E-01  1.015E+05 -1.305E-11  6.500E-02  2.933E+02  2.933E+02
  2.000E-02  3.630E-01  1.015E+05 -3.626E-11  6.501E-02  2.932E+02  2.932E+02
  2.000E-02  3.693E-01  1.015E+05 -3.620E-11  6.500E-02  2.932E+02  2.932E+02
  2.000E-02  3.756E-01  1.015E+05 -2.548E-11  6.500E-02  2.932E+02  2.932E+02
  2.000E-02  3.819E-01  1.015E+05 -1.269E-11  6.500E-02  2.932E+02  2.932E+02
  2.000E-02  3.882E-01  1.015E+05 -9.922E-12  6.500E-02  2.932E+02  2.932E+02
  2.000E-02  3.945E-01  1.015E+05 -5.625E-12  6.500E-02  2.932E+02  2.932E+02
  2.000E-02  4.008E-01  1.014E+05  1.029E-11  6.500E-02  2.932E+02  2.932E+02
  2.000E-02  4.072E-01  1.014E+05  3.943E-11  6.500E-02  2.932E+02  2.932E+02
  2.000E-02  4.135E-01  1.014E+05  5.327E-11  6.500E-02  2.932E+02  2.932E+02
  2.000E-02  4.198E-01  1.014E+05  4.498E-11  6.500E-02  2.932E+02  2.932E+02
  2.000E-02  4.261E-01  1.014E+05 -5.399E-13  6.500E-02  2.932E+02  2.932E+02
  2.000E-02  4.324E-01  1.014E+05 -4.710E-11  6.501E-02  2.932E+02  2.932E+02
  2.000E-02  4.387E-01  1.014E+05 -6.473E-11  6.500E-02  2.932E+02  2.932E+02
  2.000E-02  4.450E-01  1.014E+05 -4.827E-11  6.500E-02  2.932E+02  2.932E+02
  2.000E-02  4.513E-01  1.014E+05  8.566E-12  6.500E-02  2.932E+02  2.932E+02
  2.000E-02  4.577E-01  1.014E+05  5.517E-11  6.500E-02  2.932E+02  2.932E+02
  2.000E-02  4.640E-01  1.014E+05  6.625E-11  6.500E-02  2.931E+02  2.931E+02
  2.000E-02  4.703E-01  1.014E+05  3.532E-11  6.500E-02  2.931E+02  2.931E+02
  2.000E-02  4.766E-01  1.014E+05 -1.515E-11  6.500E-02  2.931E+02  2.931E+02
  2.000E-02  4.829E-01  1.014E+05 -6.611E-11  6.500E-02  2.931E+02  2.931E+02
  2.000E-02  4.892E-01  1.013E+05 -9.102E-11  6.500E-02  2.931E+02  2.931E+02
  2.000E-02  4.955E-01  1.013E+05 -9.496E-11  6.500E-02  2.931E+02  2.931E+02
  2.000E-02  5.018E-01  1.013E+05 -9.694E-11  6.500E-02  2.931E+02  2.931E+02
  2.000E-02  5.050E-01  1.013E+05 -9.694E-11  6.500E-02  2.931E+02  2.931E+02
  2.800E-02  0.000E+00  1.019E+05  4.110E-07  6.500E-02  2.938E+02  2.938E+02
  2.800E-02  3.156E-03  1.019E+05  4.110E-07  6.498E-02  2.938E+02  2.938E+02
  2.800E-02  9.469E-03  1.019E+05  3.558E-07  6.500E-02  2.938E+02  2.938E+02
  2.800E-02  1.578E-02  1.019E+05  3.477E-07  6.500E-02  2.938E+02  2.938E+02
  2.800E-02  2.209E-02  1.019E+05  3.357E-07  6.500E-02  2.938E+02  2.938E+02
  2.800E-02  2.841E-02  1.019E+05  9.433E-07  6.501E-02  2.938E+02  2.938E+02
  2.800E-02  3.472E-02  1.019E+05  9.450E-07  6.500E-02  2.938E+02  2.938E+02
  2.800E-02  4.103E-02  1.019E+05  8.753E-07  6.500E-02  2.938E+02  2.938E+02
  2.800E-02  4.734E-02  1.019E+05  1.945E-07  6.500E-02  2.938E+02  2.938E+02
  2.800E-02  5.366E-02  1.019E+05  1.262E-07  6.500E-02  2.938E+02  2.938E+02
  2.800E-02  5.997E-02  1.018E+05  5.406E-08  6.500E-02  2.938E+02  2.938E+02
  2.800E-02  6.628E-02  1.018E+05  3.243E-08  6.500E-02  2.938E+02  2.938E+02
  2.800E-02  7.259E-02  1.018E+05  2.057E-08  6.500E-02  2.939E+02  2.939E+02
  2.800E-02  7.891E-02  1.018E+05  1.461E-08  6.500E-02  2.939E+02  2.939E+02
  2.800E-02  8.522E-02  1.018E+05  1.094E-08  6.500E-02  2.940E+02  2.940E+02
  2.800E-02  9.153E-02  1.018E+05  8.440E-09  6.500E-02  2.941E+02  2.940E+02
  2.800E-02  9.784E-02  1.018E+05  6.554E-09  6.501E-02  2.942E+02  2.942E+02
  2.800E-02  1.042E-01  1.018E+05  5.135E-09  6.500E-02  2.944E+02  2.944E+02
  2.800E-02  1.105E-01  1.018E+05  4.071E-09  6.500E-02  2.947E+02  2.946E+02
  2.800E-02  1.168E-01  1.018E+05  3.222E-09  6.500E-02  2.950E+02  2.950E+02
  2.800E-02  1.231E-01  1.018E+05  2.554E-09  6.500E-02  2.954E+02  2.954E+02
  2.800E-02  1.294E-01  1.018E+05  1.979E-09  6.500E-02  2.958E+02  2.958E+02
  2.800E-02  1.357E-01  1.018E+05  1.516E-09  6.500E-02  2.962E+02  2.962E+02
  2.800E-02  1.420E-01  1.017E+05  1.208E-09  6.500E-02  2.966E+02  2.966E+02
  2.800E-02  1.483E-01  1.017E+05  9.410E-10  6.500E-02  2.970E+02  2.970E+02
  2.800E-02  1.547E-01  1.017E+05  7.259E-10  6.500E-02  2.973E+02  2.972E+02
  2.800E-02  1.610E-01  1.017E+05  5.558E-10  6.500E-02  2.974E+02  2.974E+02
  2.800E-02  1.673E-01  1.017E+05  4.430E-10  6.501E-02  2.975E+02  2.975E+02
  2.800E-02  1.736E-01  1.017E+05  3.790E-10  6.500E-02  2.975E+02  2.975E+02
  2.800E-02  1.799E-01  1.017E+05  3.361E-10  6.500E-02  2.973E+02  2.973E+02
  2.800E-02  1.862E-01  1.017E+05  2.962E-10  6.500E-02  2.971E+02  2.971E+02
  2.800E-02  1.925E-01  1.017E+05  2.362E-10  6.500E-02  2.968E+02  2.968E+02
  2.800E-02  1.988E-01  1.017E+05  1.731E-10  6.500E-02  2.965E+02  2.965E+02
  2.800E-02  2.052E-01  1.017E+05  1.116E-10  6.500E-02  2.962E+02  2.962E+02
  2.800E-02  2.115E-01  1.017E+05  6.834E-11  6.500E-02  2.958E+02  2.958E+02
  2.800E-02  2.178E-01  1.017E+05  3.364E-11  6.500E-02  2.955E+02  2.955E+02
  2.800E-02  2.241E-01  1.017E+05  1.684E-11  6.500E-02  2.951E+02  2.952E+02
  2.800E-02  2.304E-01  1.016E+05 -2.034E-14  6.500E-02  2.949E+02  2.949E+02
  2.800E-02  2.367E-01  1.016E+05 -4.957E-12  6.501E-02  2.946E+02  2.946E+02
  2.800E-02  2.430E-01  1.016E+05  7.748E-12  6.500E-02  2.944E+02  2.944E+02
  2.800E-02  2.493E-01  1.016E+05  2.451E-11  6.500E-02  2.942E+02  2.942E+02
  2.800E-02  2.557E-01  1.016E+05  4.162E-11  6.500E-02  2.940E+02  2.940E+02
  2.800E-02  2.620E-01  1.016E+05  3.862E-11  6.500E-02  2.938E+02  2.938E+02
  2.800E-02  2.683E-01  1.016E+05  2.320E-11  6.500E-02  2.937E+02  2.937E+02
  2.800E-02  2.746E-01  1.016E+05  2.513E-13  6.500E-02  2.936E+02  2.936E+02
  2.800E-02  2.809E-01  1.016E+05 -7.900E-12  6.500E-02  2.936E+02  2.936E+02
  2.800E-02  2.872E-01  1.016E+05 -1.411E-11  6.500E-02  2.935E+02  2.935E+02
  2.800E-02  2.935E-01  1.016E+05 -1.917E-11  6.501E-02  2.934E+02  2.934E+02
  2.800E-02  2.998E-01  1.016E+05 -1.785E-11  6.500E-02  2.934E+02  2.934E+02
  2.800E-02  3.062E-01  1.016E+05 -1.549E-11  6.500E-02  2.934E+02  2.934E+02
  2.800E-02  3.125E-01  1.015E+05 -5.714E-12  6.500E-02  2.933E+02  2.934E+02
  2.800E-02  3.188E-01  1.015E+05  2.952E-12  6.500E-02  2.933E+02  2.933E+02
  2.800E-02  3.251E-01  1.015E+05  1.460E-11  6.500E-02  2.933E+02  2.933E+02
  2.800E-02  3.314E-01  1.015E+05  1.325E-11  6.500E-02  2.933E+02  2.933E+02
  2.800E-02  3.377E-01  1.015E+05  6.645E-12  6.500E-02  2.933E+02  2.933E+02