VARIABLES="XP","YP","P","U","V","TS","TF"
ZONE T="Zone 001"I=    62 J=    22 F=POINT
  0.000E+00  0.000E+00  2.913E-13  0.000E+00  0.000E+00  2.820E-01  1.591E+03
  0.000E+00  4.208E-03  2.913E-13  0.000E+00  0.000E+00  2.820E-01  1.591E+03
  0.000E+00  1.262E-02  2.916E-13  0.000E+00  0.000E+00  3.011E-01  1.592E+03
  0.000E+00  2.104E-02  2.914E-13  0.000E+00  0.000E+00  3.398E-01  1.594E+03
  0.000E+00  2.946E-02  2.912E-13  0.000E+00  0.000E+00  3.991E-01  1.598E+03
  0.000E+00  3.787E-02  2.910E-13  0.000E+00  0.000E+00  4.801E-01  1.603E+03
  0.000E+00  4.629E-02  2.906E-13  0.000E+00  0.000E+00  5.847E-01  1.609E+03
  0.000E+00  5.471E-02  2.902E-13  0.000E+00  0.000E+00  7.147E-01  1.617E+03
  0.000E+00  6.313E-02  2.895E-13  0.000E+00  0.000E+00  8.720E-01  1.625E+03
  0.000E+00  7.154E-02  2.887E-13  0.000E+00  0.000E+00  1.059E+00  1.635E+03
  0.000E+00  7.996E-02  2.876E-13  0.000E+00  0.000E+00  1.276E+00  1.646E+03
  0.000E+00  8.838E-02  2.864E-13  0.000E+00  0.000E+00  1.527E+00  1.659E+03
  0.000E+00  9.679E-02  2.849E-13  0.000E+00  0.000E+00  1.811E+00  1.672E+03
  0.000E+00  1.052E-01  2.832E-13  0.000E+00  0.000E+00  2.129E+00  1.687E+03
  0.000E+00  1.136E-01  2.812E-13  0.000E+00  0.000E+00  1.809E+00  1.637E+03
  0.000E+00  1.220E-01  2.789E-13  0.000E+00  0.000E+00  1.523E+00  1.588E+03
  0.000E+00  1.305E-01  2.763E-13  0.000E+00  0.000E+00  1.270E+00  1.541E+03
  0.000E+00  1.389E-01  2.735E-13  0.000E+00  0.000E+00  1.050E+00  1.495E+03
  0.000E+00  1.473E-01  2.704E-13  0.000E+00  0.000E+00  8.588E-01  1.450E+03
  0.000E+00  1.557E-01  2.670E-13  0.000E+00  0.000E+00  6.960E-01  1.406E+03
  0.000E+00  1.641E-01  2.633E-13  0.000E+00  0.000E+00  5.585E-01  1.363E+03
  0.000E+00  1.725E-01  2.593E-13  0.000E+00  0.000E+00  4.438E-01  1.321E+03
  0.000E+00  1.810E-01  2.551E-13  0.000E+00  0.000E+00  3.493E-01  1.281E+03
  0.000E+00  1.894E-01  2.507E-13  0.000E+00  0.000E+00  2.722E-01  1.242E+03
  0.000E+00  1.978E-01  2.462E-13  0.000E+00  0.000E+00  2.100E-01  1.204E+03
  0.000E+00  2.062E-01  2.414E-13  0.000E+00  0.000E+00  1.605E-01  1.167E+03
  0.000E+00  2.146E-01  2.365E-13  0.000E+00  0.000E+00  1.215E-01  1.131E+03
  0.000E+00  2.230E-01  2.313E-13  0.000E+00  0.000E+00  9.114E-02  1.096E+03
  0.000E+00  2.315E-01  2.259E-13  0.000E+00  0.000E+00  6.773E-02  1.063E+03
  0.000E+00  2.399E-01  2.204E-13  0.000E+00  0.000E+00  4.987E-02  1.030E+03
  0.000E+00  2.483E-01  2.148E-13  0.000E+00  0.000E+00  3.640E-02  9.988E+02
  0.000E+00  2.567E-01  2.090E-13  0.000E+00  0.000E+00  2.633E-02  9.686E+02
  0.000E+00  2.651E-01  2.031E-13  0.000E+00  0.000E+00  1.889E-02  9.395E+02
  0.000E+00  2.735E-01  1.971E-13  0.000E+00  0.000E+00  1.344E-02  9.114E+02
  0.000E+00  2.820E-01  1.911E-13  0.000E+00  0.000E+00  9.481E-03  8.845E+02
  0.000E+00  2.904E-01  1.849E-13  0.000E+00  0.000E+00  6.638E-03  8.586E+02
  0.000E+00  2.988E-01  1.787E-13  0.000E+00  0.000E+00  4.613E-03  8.338E+02
  0.000E+00  3.072E-01  1.724E-13  0.000E+00  0.000E+00  3.182E-03  8.100E+02
  0.000E+00  3.156E-01  1.661E-13  0.000E+00  0.000E+00  2.181E-03  7.873E+02
  0.000E+00  3.240E-01  1.597E-13  0.000E+00  0.000E+00  1.485E-03  7.656E+02
  0.000E+00  3.325E-01  1.532E-13  0.000E+00  0.000E+00  1.006E-03  7.450E+02
  0.000E+00  3.409E-01  1.466E-13  0.000E+00  0.000E+00  6.779E-04  7.254E+02
  0.000E+00  3.493E-01  1.399E-13  0.000E+00  0.000E+00  4.554E-04  7.068E+02
  0.000E+00  3.577E-01  1.332E-13  0.000E+00  0.000E+00  3.055E-04  6.892E+02
  0.000E+00  3.661E-01  1.263E-13  0.000E+00  0.000E+00  2.051E-04  6.727E+02
  0.000E+00  3.745E-01  1.195E-13  0.000E+00  0.000E+00  1.383E-04  6.571E+02
  0.000E+00  3.830E-01  1.126E-13  0.000E+00  0.000E+00  9.412E-05  6.426E+02
  0.000E+00  3.914E-01  1.057E-13  0.000E+00  0.000E+00  6.507E-05  6.290E+02
  0.000E+00  3.998E-01  9.865E-14  0.000E+00  0.000E+00  4.605E-05  6.165E+02
  0.000E+00  4.082E-01  9.148E-14  0.000E+00  0.000E+00  3.364E-05  6.049E+02
  0.000E+00  4.166E-01  8.420E-14  0.000E+00  0.000E+00  2.557E-05  5.943E+02
  0.000E+00  4.250E-01  7.677E-14  0.000E+00  0.000E+00  2.033E-05  5.847E+02
  0.000E+00  4.335E-01  6.914E-14  0.000E+00  0.000E+00  1.692E-05  5.760E+02
  0.000E+00  4.419E-01  6.132E-14  0.000E+00  0.000E+00  1.469E-05  5.683E+02
  0.000E+00  4.503E-01  5.338E-14  0.000E+00  0.000E+00  1.323E-05  5.616E+02
  0.000E+00  4.587E-01  4.529E-14  0.000E+00  0.000E+00  1.226E-05  5.559E+02
  0.000E+00  4.671E-01  3.705E-14  0.000E+00  0.000E+00  1.161E-05  5.511E+02
  0.000E+00  4.755E-01  2.877E-14  0.000E+00  0.000E+00  1.118E-05  5.473E+02
  0.000E+00  4.840E-01  2.052E-14  0.000E+00  0.000E+00  1.089E-05  5.444E+02
  0.000E+00  4.924E-01  1.225E-14  0.000E+00  0.000E+00  1.072E-05  5.425E+02
  0.000E+00  5.008E-01  4.085E-15  0.000E+00  0.000E+00  1.063E-05  5.415E+02
  0.000E+00  5.050E-01  4.085E-15  0.000E+00  0.000E+00  1.063E-05  5.415E+02
  4.000E-03  0.000E+00  2.913E-13  0.000E+00  0.000E+00  2.820E-01  1.591E+03
  4.000E-03  4.208E-03  2.914E-13 -5.862E-18  2.492E-17  2.820E-01  1.591E+03
  4.000E-03  1.262E-02  2.915E-13 -9.946E-17  1.155E-16  3.011E-01  1.592E+03
  4.000E-03  2.104E-02  2.914E-13  3.389E-18  1.764E-16  3.398E-01  1.594E+03
  4.000E-03  2.946E-02  2.912E-13  7.727E-17  1.083E-16  3.991E-01  1.598E+03
  4.000E-03  3.787E-02  2.910E-13  3.990E-17  3.523E-16  4.801E-01  1.603E+03
  4.000E-03  4.629E-02  2.906E-13  6.461E-17  6.041E-16  5.847E-01  1.609E+03
  4.000E-03  5.471E-02  2.901E-13 -1.784E-17  7.783E-16  7.147E-01  1.617E+03
  4.000E-03  6.313E-02  2.895E-13 -5.514E-17  8.962E-16  8.720E-01  1.625E+03
  4.000E-03  7.154E-02  2.887E-13 -2.834E-17  1.165E-15  1.059E+00  1.635E+03
  4.000E-03  7.996E-02  2.877E-13  1.190E-17  1.371E-15  1.276E+00  1.646E+03
  4.000E-03  8.838E-02  2.864E-13 -1.023E-17  1.628E-15  1.527E+00  1.659E+03
  4.000E-03  9.679E-02  2.850E-13 -7.932E-17  2.025E-15  1.811E+00  1.672E+03
  4.000E-03  1.052E-01  2.833E-13 -1.216E-16  2.405E-15  2.129E+00  1.687E+03
  4.000E-03  1.136E-01  2.813E-13 -1.359E-16  2.764E-15  1.809E+00  1.637E+03
  4.000E-03  1.220E-01  2.790E-13 -1.573E-16  3.159E-15  1.523E+00  1.588E+03
  4.000E-03  1.305E-01  2.764E-13 -1.632E-16  3.509E-15  1.270E+00  1.541E+03
  4.000E-03  1.389E-01  2.736E-13 -1.462E-16  3.834E-15  1.050E+00  1.495E+03
  4.000E-03  1.473E-01  2.705E-13 -1.216E-16  4.205E-15  8.588E-01  1.450E+03
  4.000E-03  1.557E-01  2.671E-13 -6.288E-17  4.545E-15  6.960E-01  1.406E+03
  4.000E-03  1.641E-01  2.634E-13  2.652E-17  4.825E-15  5.585E-01  1.363E+03
  4.000E-03  1.725E-01  2.594E-13  8.787E-17  5.132E-15  4.438E-01  1.321E+03
  4.000E-03  1.810E-01  2.553E-13  7.607E-17  5.483E-15  3.493E-01  1.281E+03
  4.000E-03  1.894E-01  2.509E-13  4.697E-18  5.778E-15  2.722E-01  1.242E+03
  4.000E-03  1.978E-01  2.463E-13 -6.715E-17  5.956E-15  2.100E-01  1.204E+03
  4.000E-03  2.062E-01  2.415E-13 -1.029E-16  6.120E-15  1.605E-01  1.167E+03
  4.000E-03  2.146E-01  2.365E-13 -1.102E-16  6.376E-15  1.215E-01  1.131E+03
  4.000E-03  2.230E-01  2.314E-13 -7.400E-17  6.668E-15  9.114E-02  1.096E+03
  4.000E-03  2.315E-01  2.260E-13 -1.638E-17  6.896E-15  6.773E-02  1.063E+03
  4.000E-03  2.399E-01  2.205E-13 -8.743E-18  7.053E-15  4.987E-02  1.030E+03
  4.000E-03  2.483E-01  2.148E-13 -4.510E-17  7.174E-15  3.640E-02  9.988E+02
  4.000E-03  2.567E-01  2.090E-13 -6.434E-17  7.296E-15  2.633E-02  9.686E+02
  4.000E-03  2.651E-01  2.032E-13 -6.062E-17  7.425E-15  1.889E-02  9.395E+02
  4.000E-03  2.735E-01  1.972E-13 -4.868E-17  7.523E-15  1.344E-02  9.114E+02
  4.000E-03  2.820E-01  1.911E-13 -3.699E-17  7.599E-15  9.481E-03  8.845E+02
  4.000E-03  2.904E-01  1.849E-13 -2.268E-17  7.698E-15  6.638E-03  8.586E+02
  4.000E-03  2.988E-01  1.787E-13 -1.888E-17  7.812E-15  4.613E-03  8.338E+02
  4.000E-03  3.072E-01  1.724E-13 -4.544E-17  7.908E-15  3.182E-03  8.100E+02
  4.000E-03  3.156E-01  1.661E-13 -7.237E-17  7.972E-15  2.181E-03  7.873E+02
  4.000E-03  3.240E-01  1.597E-13 -7.297E-17  8.047E-15  1.485E-03  7.656E+02
  4.000E-03  3.325E-01  1.532E-13 -6.382E-17  8.145E-15  1.006E-03  7.450E+02
  4.000E-03  3.409E-01  1.466E-13 -4.749E-17  8.237E-15  6.779E-04  7.254E+02
  4.000E-03  3.493E-01  1.400E-13 -8.226E-18  8.326E-15  4.554E-04  7.068E+02
  4.000E-03  3.577E-01  1.332E-13  1.820E-17  8.450E-15  3.055E-04  6.892E+02
  4.000E-03  3.661E-01  1.264E-13  4.073E-18  8.585E-15  2.051E-04  6.727E+02
  4.000E-03  3.745E-01  1.196E-13 -3.295E-17  8.674E-15  1.383E-04  6.571E+02
  4.000E-03  3.830E-01  1.127E-13 -8.231E-17  8.708E-15  9.412E-05  6.426E+02
  4.000E-03  3.914E-01  1.057E-13 -1.119E-16  8.716E-15  6.507E-05  6.290E+02
  4.000E-03  3.998E-01  9.871E-14 -8.693E-17  8.763E-15  4.605E-05  6.165E+02
  4.000E-03  4.082E-01  9.156E-14 -9.755E-17  8.896E-15  3.364E-05  6.049E+02
  4.000E-03  4.166E-01  8.428E-14 -2.173E-16  9.096E-15  2.557E-05  5.943E+02
  4.000E-03  4.250E-01  7.685E-14 -3.238E-16  9.343E-15  2.033E-05  5.847E+02
  4.000E-03  4.335E-01  6.922E-14 -2.855E-16  9.594E-15  1.692E-05  5.760E+02
  4.000E-03  4.419E-01  6.140E-14 -1.608E-16  9.791E-15  1.469E-05  5.683E+02
  4.000E-03  4.503E-01  5.343E-14 -7.062E-17  9.971E-15  1.323E-05  5.616E+02
  4.000E-03  4.587E-01  4.533E-14 -5.260E-18  1.020E-14  1.226E-05  5.559E+02
  4.000E-03  4.671E-01  3.710E-14  3.325E-17  1.043E-14  1.161E-05  5.511E+02
  4.000E-03  4.755E-01  2.882E-14 -2.962E-18  1.051E-14  1.118E-05  5.473E+02
  4.000E-03  4.840E-01  2.057E-14 -7.873E-17  1.042E-14  1.089E-05  5.444E+02
  4.000E-03  4.924E-01  1.229E-14 -1.119E-16  1.026E-14  1.072E-05  5.425E+02
  4.000E-03  5.008E-01  4.097E-15 -9.441E-17  1.020E-14  1.063E-05  5.415E+02
  4.000E-03  5.050E-01  0.000E+00 -9.441E-17  1.020E-14  1.063E-05  5.415E+02
  1.200E-02  0.000E+00  2.915E-13  0.000E+00  0.000E+00  2.820E-01  1.591E+03
  1.200E-02  4.208E-03  2.915E-13  3.481E-17 -6.361E-17  2.820E-01  1.591E+03
  1.200E-02  1.262E-02  2.914E-13  2.890E-18  1.421E-16  3.011E-01  1.592E+03
  1.200E-02  2.104E-02  2.914E-13 -1.795E-17  2.271E-16  3.398E-01  1.594E+03
  1.200E-02  2.946E-02  2.912E-13  4.430E-17  1.710E-16  3.991E-01  1.598E+03
  1.200E-02  3.787E-02  2.910E-13  1.133E-16  3.508E-16  4.801E-01  1.603E+03
  1.200E-02  4.629E-02  2.906E-13  1.027E-16  6.445E-16  5.847E-01  1.609E+03
  1.200E-02  5.471E-02  2.901E-13 -5.101E-18  7.968E-16  7.147E-01  1.617E+03
  1.200E-02  6.313E-02  2.894E-13 -2.896E-18  9.397E-16  8.720E-01  1.625E+03
  1.200E-02  7.154E-02  2.887E-13 -1.924E-17  1.213E-15  1.059E+00  1.635E+03
  1.200E-02  7.996E-02  2.877E-13 -4.015E-17  1.427E-15  1.276E+00  1.646E+03
  1.200E-02  8.838E-02  2.865E-13 -2.723E-17  1.654E-15  1.527E+00  1.659E+03
  1.200E-02  9.679E-02  2.851E-13 -3.463E-17  2.005E-15  1.811E+00  1.672E+03
  1.200E-02  1.052E-01  2.834E-13 -3.024E-17  2.366E-15  2.129E+00  1.687E+03
  1.200E-02  1.136E-01  2.814E-13  1.339E-17  2.700E-15  1.809E+00  1.637E+03
  1.200E-02  1.220E-01  2.791E-13  2.643E-17  3.058E-15  1.523E+00  1.588E+03
  1.200E-02  1.305E-01  2.766E-13  1.741E-17  3.426E-15  1.270E+00  1.541E+03
  1.200E-02  1.389E-01  2.737E-13  3.139E-17  3.783E-15  1.050E+00  1.495E+03
  1.200E-02  1.473E-01  2.706E-13  3.737E-17  4.135E-15  8.588E-01  1.450E+03
  1.200E-02  1.557E-01  2.672E-13  4.772E-17  4.460E-15  6.960E-01  1.406E+03
  1.200E-02  1.641E-01  2.635E-13  1.050E-16  4.760E-15  5.585E-01  1.363E+03
  1.200E-02  1.725E-01  2.596E-13  1.844E-16  5.075E-15  4.438E-01  1.321E+03
  1.200E-02  1.810E-01  2.555E-13  1.953E-16  5.399E-15  3.493E-01  1.281E+03
  1.200E-02  1.894E-01  2.511E-13  1.035E-16  5.680E-15  2.722E-01  1.242E+03
  1.200E-02  1.978E-01  2.465E-13  1.455E-17  5.892E-15  2.100E-01  1.204E+03
  1.200E-02  2.062E-01  2.417E-13  1.044E-17  6.093E-15  1.605E-01  1.167E+03
  1.200E-02  2.146E-01  2.367E-13  4.854E-17  6.345E-15  1.215E-01  1.131E+03
  1.200E-02  2.230E-01  2.315E-13  7.557E-17  6.633E-15  9.114E-02  1.096E+03
  1.200E-02  2.315E-01  2.261E-13  7.059E-17  6.898E-15  6.773E-02  1.063E+03
  1.200E-02  2.399E-01  2.206E-13  3.416E-17  7.092E-15  4.987E-02  1.030E+03
  1.200E-02  2.483E-01  2.149E-13  2.842E-18  7.221E-15  3.640E-02  9.988E+02
  1.200E-02  2.567E-01  2.091E-13 -9.381E-18  7.348E-15  2.633E-02  9.686E+02
  1.200E-02  2.651E-01  2.032E-13 -3.040E-17  7.483E-15  1.889E-02  9.395E+02
  1.200E-02  2.735E-01  1.972E-13 -5.634E-17  7.600E-15  1.344E-02  9.114E+02
  1.200E-02  2.820E-01  1.911E-13 -5.427E-17  7.699E-15  9.481E-03  8.845E+02
  1.200E-02  2.904E-01  1.850E-13 -1.387E-17  7.804E-15  6.638E-03  8.586E+02
  1.200E-02  2.988E-01  1.788E-13  2.623E-17  7.891E-15  4.613E-03  8.338E+02
  1.200E-02  3.072E-01  1.725E-13  2.738E-17  7.941E-15  3.182E-03  8.100E+02
  1.200E-02  3.156E-01  1.661E-13  4.804E-18  8.002E-15  2.181E-03  7.873E+02
  1.200E-02  3.240E-01  1.597E-13 -1.854E-17  8.122E-15  1.485E-03  7.656E+02
  1.200E-02  3.325E-01  1.532E-13 -3.884E-17  8.255E-15  1.006E-03  7.450E+02
  1.200E-02  3.409E-01  1.466E-13 -2.812E-17  8.339E-15  6.779E-04  7.254E+02
  1.200E-02  3.493E-01  1.400E-13  3.124E-17  8.403E-15  4.554E-04  7.068E+02
  1.200E-02  3.577E-01  1.333E-13  8.658E-17  8.487E-15  3.055E-04  6.892E+02
  1.200E-02  3.661E-01  1.265E-13  7.355E-17  8.570E-15  2.051E-04  6.727E+02
  1.200E-02  3.745E-01  1.197E-13 -9.543E-18  8.614E-15  1.383E-04  6.571E+02
  1.200E-02  3.830E-01  1.128E-13 -1.318E-16  8.646E-15  9.413E-05  6.426E+02
  1.200E-02  3.914E-01  1.059E-13 -2.185E-16  8.734E-15  6.508E-05  6.290E+02
  1.200E-02  3.998E-01  9.884E-14 -2.252E-16  8.908E-15  4.606E-05  6.165E+02
  1.200E-02  4.082E-01  9.172E-14 -2.078E-16  9.074E-15  3.366E-05  6.049E+02
  1.200E-02  4.166E-01  8.445E-14 -2.210E-16  9.178E-15  2.559E-05  5.943E+02
  1.200E-02  4.250E-01  7.702E-14 -2.482E-16  9.328E-15  2.035E-05  5.847E+02
  1.200E-02  4.335E-01  6.939E-14 -2.520E-16  9.584E-15  1.694E-05  5.760E+02
  1.200E-02  4.419E-01  6.156E-14 -1.898E-16  9.857E-15  1.471E-05  5.683E+02
  1.200E-02  4.503E-01  5.355E-14 -5.898E-17  1.008E-14  1.325E-05  5.616E+02
  1.200E-02  4.587E-01  4.542E-14  9.677E-17  1.029E-14  1.228E-05  5.559E+02
  1.200E-02  4.671E-01  3.720E-14  1.638E-16  1.046E-14  1.163E-05  5.511E+02
  1.200E-02  4.755E-01  2.893E-14  7.182E-17  1.052E-14  1.119E-05  5.473E+02
  1.200E-02  4.840E-01  2.068E-14 -7.954E-17  1.055E-14  1.091E-05  5.444E+02
  1.200E-02  4.924E-01  1.238E-14 -1.541E-16  1.055E-14  1.073E-05  5.425E+02
  1.200E-02  5.008E-01  4.119E-15 -2.208E-16  1.053E-14  1.065E-05  5.415E+02
  1.200E-02  5.050E-01  0.000E+00 -2.208E-16  1.053E-14  1.065E-05  5.415E+02
  2.000E-02  0.000E+00  2.916E-13  0.000E+00  0.000E+00  2.820E-01  1.591E+03
  2.000E-02  4.208E-03  2.915E-13  1.391E-16 -1.117E-16  2.820E-01  1.591E+03
  2.000E-02  1.262E-02  2.914E-13 -2.230E-18  7.052E-17  3.011E-01  1.592E+03
  2.000E-02  2.104E-02  2.914E-13 -4.032E-17  1.935E-16  3.398E-01  1.594E+03
  2.000E-02  2.946E-02  2.912E-13  4.294E-17  2.448E-16  3.991E-01  1.598E+03
  2.000E-02  3.787E-02  2.909E-13  1.623E-16  3.287E-16  4.801E-01  1.603E+03
  2.000E-02  4.629E-02  2.905E-13  1.684E-16  5.869E-16  5.847E-01  1.609E+03
  2.000E-02  5.471E-02  2.901E-13  1.154E-16  7.708E-16  7.147E-01  1.617E+03
  2.000E-02  6.313E-02  2.895E-13  1.240E-16  9.494E-16  8.720E-01  1.625E+03
  2.000E-02  7.154E-02  2.887E-13  5.754E-17  1.182E-15  1.059E+00  1.635E+03
  2.000E-02  7.996E-02  2.877E-13 -5.081E-17  1.386E-15  1.276E+00  1.646E+03
  2.000E-02  8.838E-02  2.866E-13 -9.960E-17  1.624E-15  1.527E+00  1.659E+03
  2.000E-02  9.679E-02  2.852E-13 -1.300E-16  1.982E-15  1.811E+00  1.672E+03
  2.000E-02  1.052E-01  2.835E-13 -1.722E-16  2.359E-15  2.129E+00  1.687E+03
  2.000E-02  1.136E-01  2.815E-13 -1.897E-16  2.732E-15  1.809E+00  1.637E+03
  2.000E-02  1.220E-01  2.792E-13 -1.610E-16  3.156E-15  1.523E+00  1.588E+03
  2.000E-02  1.305E-01  2.766E-13 -1.022E-16  3.579E-15  1.270E+00  1.541E+03
  2.000E-02  1.389E-01  2.738E-13 -5.722E-17  3.943E-15  1.050E+00  1.495E+03
  2.000E-02  1.473E-01  2.706E-13 -5.592E-17  4.264E-15  8.588E-01  1.450E+03
  2.000E-02  1.557E-01  2.672E-13 -7.102E-17  4.567E-15  6.960E-01  1.406E+03
  2.000E-02  1.641E-01  2.635E-13 -6.978E-17  4.865E-15  5.585E-01  1.363E+03
  2.000E-02  1.725E-01  2.596E-13 -5.771E-17  5.180E-15  4.438E-01  1.321E+03
  2.000E-02  1.810E-01  2.554E-13 -6.803E-17  5.501E-15  3.493E-01  1.281E+03
  2.000E-02  1.894E-01  2.511E-13 -1.097E-16  5.796E-15  2.722E-01  1.242E+03
  2.000E-02  1.978E-01  2.465E-13 -1.366E-16  6.041E-15  2.100E-01  1.204E+03
  2.000E-02  2.062E-01  2.417E-13 -1.185E-16  6.257E-15  1.605E-01  1.167E+03
  2.000E-02  2.146E-01  2.367E-13 -8.536E-17  6.482E-15  1.215E-01  1.131E+03
  2.000E-02  2.230E-01  2.315E-13 -6.446E-17  6.742E-15  9.114E-02  1.096E+03
  2.000E-02  2.315E-01  2.261E-13 -5.716E-17  7.010E-15  6.773E-02  1.063E+03
  2.000E-02  2.399E-01  2.206E-13 -5.693E-17  7.199E-15  4.987E-02  1.030E+03
  2.000E-02  2.483E-01  2.149E-13 -5.806E-17  7.290E-15  3.640E-02  9.988E+02
  2.000E-02  2.567E-01  2.091E-13 -6.640E-17  7.374E-15  2.633E-02  9.686E+02
  2.000E-02  2.651E-01  2.032E-13 -8.472E-17  7.495E-15  1.889E-02  9.395E+02
  2.000E-02  2.735E-01  1.973E-13 -9.983E-17  7.608E-15  1.344E-02  9.114E+02
  2.000E-02  2.820E-01  1.912E-13 -1.023E-16  7.708E-15  9.481E-03  8.845E+02
  2.000E-02  2.904E-01  1.850E-13 -1.039E-16  7.832E-15  6.638E-03  8.586E+02
  2.000E-02  2.988E-01  1.788E-13 -1.107E-16  7.945E-15  4.613E-03  8.338E+02
  2.000E-02  3.072E-01  1.725E-13 -1.038E-16  7.999E-15  3.182E-03  8.100E+02
  2.000E-02  3.156E-01  1.662E-13 -7.357E-17  8.044E-15  2.181E-03  7.873E+02
  2.000E-02  3.240E-01  1.598E-13 -4.796E-17  8.137E-15  1.485E-03  7.656E+02
  2.000E-02  3.325E-01  1.533E-13 -6.189E-17  8.248E-15  1.006E-03  7.450E+02
  2.000E-02  3.409E-01  1.467E-13 -9.176E-17  8.328E-15  6.780E-04  7.254E+02
  2.000E-02  3.493E-01  1.400E-13 -1.054E-16  8.392E-15  4.555E-04  7.068E+02
  2.000E-02  3.577E-01  1.333E-13 -1.346E-16  8.454E-15  3.055E-04  6.892E+02
  2.000E-02  3.661E-01  1.266E-13 -2.319E-16  8.518E-15  2.051E-04  6.727E+02
  2.000E-02  3.745E-01  1.198E-13 -3.519E-16  8.594E-15  1.383E-04  6.571E+02
  2.000E-02  3.830E-01  1.129E-13 -4.059E-16  8.694E-15  9.416E-05  6.426E+02
  2.000E-02  3.914E-01  1.060E-13 -3.968E-16  8.837E-15  6.511E-05  6.290E+02
  2.000E-02  3.998E-01  9.901E-14 -4.111E-16  9.042E-15  4.609E-05  6.165E+02
  2.000E-02  4.082E-01  9.190E-14 -4.768E-16  9.224E-15  3.369E-05  6.049E+02
  2.000E-02  4.166E-01  8.464E-14 -5.238E-16  9.328E-15  2.562E-05  5.943E+02
  2.000E-02  4.250E-01  7.720E-14 -5.229E-16  9.441E-15  2.038E-05  5.847E+02
  2.000E-02  4.335E-01  6.955E-14 -4.963E-16  9.655E-15  1.697E-05  5.760E+02
  2.000E-02  4.419E-01  6.170E-14 -4.019E-16  9.969E-15  1.474E-05  5.683E+02
  2.000E-02  4.503E-01  5.367E-14 -2.336E-16  1.025E-14  1.328E-05  5.616E+02
  2.000E-02  4.587E-01  4.550E-14 -9.603E-17  1.037E-14  1.231E-05  5.559E+02
  2.000E-02  4.671E-01  3.726E-14 -5.550E-17  1.034E-14  1.165E-05  5.511E+02
  2.000E-02  4.755E-01  2.900E-14 -5.128E-17  1.034E-14  1.122E-05  5.473E+02
  2.000E-02  4.840E-01  2.077E-14 -6.290E-17  1.049E-14  1.093E-05  5.444E+02
  2.000E-02  4.924E-01  1.245E-14 -4.886E-17  1.060E-14  1.076E-05  5.425E+02
  2.000E-02  5.008E-01  4.117E-15 -1.966E-16  1.056E-14  1.068E-05  5.415E+02
  2.000E-02  5.050E-01  0.000E+00 -1.966E-16  1.056E-14  1.068E-05  5.415E+02
  2.800E-02  0.000E+00  2.915E-13  0.000E+00  0.000E+00  2.820E-01  1.591E+03
  2.800E-02  4.208E-03  2.915E-13  1.717E-18  7.108E-17  2.820E-01  1.591E+03
  2.800E-02  1.262E-02  2.914E-13  8.546E-18  2.215E-16  3.011E-01  1.592E+03
  2.800E-02  2.104E-02  2.913E-13  4.034E-17  2.573E-16  3.398E-01  1.594E+03
  2.800E-02  2.946E-02  2.911E-13  3.538E-17  2.902E-16  3.991E-01  1.598E+03
  2.800E-02  3.787E-02  2.909E-13  1.620E-16  3.958E-16  4.801E-01  1.603E+03
  2.800E-02  4.629E-02  2.905E-13  1.529E-16  5.457E-16  5.847E-01  1.609E+03
  2.800E-02  5.471E-02  2.900E-13  7.578E-17  7.020E-16  7.147E-01  1.617E+03
  2.800E-02  6.313E-02  2.894E-13  6.454E-17  9.349E-16  8.720E-01  1.625E+03
  2.800E-02  7.154E-02  2.887E-13  1.785E-17  1.118E-15  1.059E+00  1.635E+03
  2.800E-02  7.996E-02  2.878E-13 -6.583E-17  1.294E-15  1.276E+00  1.646E+03
  2.800E-02  8.838E-02  2.867E-13 -9.846E-17  1.570E-15  1.527E+00  1.659E+03
  2.800E-02  9.679E-02  2.853E-13 -1.019E-16  1.980E-15  1.811E+00  1.672E+03
  2.800E-02  1.052E-01  2.836E-13 -9.220E-17  2.384E-15  2.129E+00  1.687E+03
  2.800E-02  1.136E-01  2.816E-13 -5.421E-17  2.745E-15  1.809E+00  1.637E+03
  2.800E-02  1.220E-01  2.793E-13 -8.634E-18  3.140E-15  1.523E+00  1.588E+03
  2.800E-02  1.305E-01  2.767E-13  1.967E-17  3.550E-15  1.270E+00  1.541E+03
  2.800E-02  1.389E-01  2.738E-13  3.414E-17  3.910E-15  1.050E+00  1.495E+03
  2.800E-02  1.473E-01  2.707E-13  4.526E-17  4.208E-15  8.588E-01  1.450E+03
  2.800E-02  1.557E-01  2.672E-13  6.934E-17  4.483E-15  6.960E-01  1.406E+03
  2.800E-02  1.641E-01  2.636E-13  1.097E-16  4.767E-15  5.585E-01  1.363E+03
  2.800E-02  1.725E-01  2.596E-13  1.510E-16  5.077E-15  4.438E-01  1.321E+03
  2.800E-02  1.810E-01  2.555E-13  1.775E-16  5.392E-15  3.493E-01  1.281E+03
  2.800E-02  1.894E-01  2.511E-13  1.771E-16  5.678E-15  2.722E-01  1.242E+03
  2.800E-02  1.978E-01  2.465E-13  1.560E-16  5.922E-15  2.100E-01  1.204E+03
  2.800E-02  2.062E-01  2.417E-13  1.382E-16  6.149E-15  1.605E-01  1.167E+03
  2.800E-02  2.146E-01  2.367E-13  1.394E-16  6.376E-15  1.215E-01  1.131E+03
  2.800E-02  2.230E-01  2.315E-13  1.365E-16  6.620E-15  9.114E-02  1.096E+03
  2.800E-02  2.315E-01  2.262E-13  8.757E-17  6.888E-15  6.773E-02  1.063E+03
  2.800E-02  2.399E-01  2.206E-13  2.711E-18  7.122E-15  4.987E-02  1.030E+03
  2.800E-02  2.483E-01  2.150E-13 -6.111E-17  7.257E-15  3.640E-02  9.988E+02
  2.800E-02  2.567E-01  2.092E-13 -8.205E-17  7.354E-15  2.633E-02  9.686E+02
  2.800E-02  2.651E-01  2.033E-13 -8.452E-17  7.485E-15  1.889E-02  9.395E+02
  2.800E-02  2.735E-01  1.973E-13 -6.796E-17  7.618E-15  1.344E-02  9.114E+02
  2.800E-02  2.820E-01  1.912E-13 -2.786E-17  7.720E-15  9.481E-03  8.845E+02
  2.800E-02  2.904E-01  1.851E-13 -4.482E-18  7.814E-15  6.638E-03  8.586E+02
  2.800E-02  2.988E-01  1.789E-13 -2.930E-17  7.893E-15  4.613E-03  8.338E+02
  2.800E-02  3.072E-01  1.726E-13 -6.432E-17  7.943E-15  3.182E-03  8.100E+02
  2.800E-02  3.156E-01  1.662E-13 -7.167E-17  8.010E-15  2.181E-03  7.873E+02
  2.800E-02  3.240E-01  1.598E-13 -6.712E-17  8.123E-15  1.485E-03  7.656E+02
  2.800E-02  3.325E-01  1.533E-13 -8.299E-17  8.246E-15  1.006E-03  7.450E+02
  2.800E-02  3.409E-01  1.468E-13 -1.046E-16  8.326E-15  6.780E-04  7.254E+02
  2.800E-02  3.493E-01  1.401E-13 -1.137E-16  8.372E-15  4.555E-04  7.068E+02
  2.800E-02  3.577E-01  1.335E-13 -1.050E-16  8.412E-15  3.055E-04  6.892E+02
  2.800E-02  3.661E-01  1.267E-13 -9.187E-17  8.442E-15  2.051E-04  6.727E+02
  2.800E-02  3.745E-01  1.200E-13 -9.406E-17  8.475E-15  1.384E-04  6.571E+02
  2.800E-02  3.830E-01  1.132E-13 -1.068E-16  8.542E-15  9.420E-05  6.426E+02
  2.800E-02  3.914E-01  1.063E-13 -1.104E-16  8.663E-15  6.515E-05  6.290E+02
  2.800E-02  3.998E-01  9.931E-14 -1.577E-16  8.829E-15  4.613E-05  6.165E+02
  2.800E-02  4.082E-01  9.221E-14 -2.956E-16  8.995E-15  3.373E-05  6.049E+02
  2.800E-02  4.166E-01  8.495E-14 -4.409E-16  9.171E-15  2.566E-05  5.943E+02
  2.800E-02  4.250E-01  7.750E-14 -4.857E-16  9.373E-15  2.042E-05  5.847E+02
  2.800E-02  4.335E-01  6.984E-14 -4.437E-16  9.585E-15  1.701E-05  5.760E+02
  2.800E-02  4.419E-01  6.197E-14 -4.050E-16  9.866E-15  1.478E-05  5.683E+02
  2.800E-02  4.503E-01  5.391E-14 -4.226E-16  1.018E-14  1.332E-05  5.616E+02
  2.800E-02  4.587E-01  4.572E-14 -4.240E-16  1.037E-14  1.235E-05  5.559E+02
  2.800E-02  4.671E-01  3.744E-14 -2.963E-16  1.035E-14  1.169E-05  5.511E+02
  2.800E-02  4.755E-01  2.916E-14 -8.473E-17  1.026E-14  1.125E-05  5.473E+02
  2.800E-02  4.840E-01  2.090E-14 -2.393E-17  1.033E-14  1.097E-05  5.444E+02
  2.800E-02  4.924E-01  1.252E-14 -5.004E-17  1.049E-14  1.080E-05  5.425E+02
  2.800E-02  5.008E-01  4.125E-15 -2.488E-16  1.060E-14  1.072E-05  5.415E+02
  2.800E-02  5.050E-01  0.000E+00 -2.488E-16  1.060E-14  1.072E-05  5.415E+02
  3.600E-02  0.000E+00  2.915E-13  0.000E+00  0.000E+00  2.820E-01  1.591E+03
  3.600E-02  4.208E-03  2.915E-13  1.574E-16  2.989E-18  2.820E-01  1.591E+03
  3.600E-02  1.262E-02  2.914E-13  5.767E-17  1.346E-16  3.011E-01  1.592E+03
  3.600E-02  2.104E-02  2.913E-13  6.630E-17  2.999E-16  3.398E-01  1.594E+03
  3.600E-02  2.946E-02  2.910E-13  7.531E-17  2.556E-16  3.991E-01  1.598E+03
  3.600E-02  3.787E-02  2.908E-13  1.670E-16  4.312E-16  4.801E-01  1.603E+03
  3.600E-02  4.629E-02  2.904E-13  1.628E-16  5.061E-16  5.847E-01  1.609E+03
  3.600E-02  5.471E-02  2.900E-13  1.330E-16  6.296E-16  7.147E-01  1.617E+03
  3.600E-02  6.313E-02  2.894E-13  6.756E-17  8.963E-16  8.720E-01  1.625E+03
  3.600E-02  7.154E-02  2.887E-13 -3.859E-17  1.066E-15  1.059E+00  1.635E+03
  3.600E-02  7.996E-02  2.879E-13 -1.099E-16  1.286E-15  1.276E+00  1.646E+03
  3.600E-02  8.838E-02  2.868E-13 -9.625E-17  1.642E-15  1.527E+00  1.659E+03
  3.600E-02  9.679E-02  2.854E-13 -9.187E-17  2.064E-15  1.811E+00  1.672E+03
  3.600E-02  1.052E-01  2.837E-13 -1.281E-16  2.433E-15  2.129E+00  1.687E+03
  3.600E-02  1.136E-01  2.817E-13 -1.431E-16  2.763E-15  1.809E+00  1.637E+03
  3.600E-02  1.220E-01  2.794E-13 -1.279E-16  3.153E-15  1.523E+00  1.588E+03
  3.600E-02  1.305E-01  2.768E-13 -1.193E-16  3.598E-15  1.270E+00  1.541E+03
  3.600E-02  1.389E-01  2.739E-13 -1.224E-16  4.026E-15  1.050E+00  1.495E+03
  3.600E-02  1.473E-01  2.707E-13 -1.050E-16  4.385E-15  8.588E-01  1.450E+03
  3.600E-02  1.557E-01  2.672E-13 -5.426E-17  4.687E-15  6.960E-01  1.406E+03
  3.600E-02  1.641E-01  2.635E-13  3.027E-18  4.959E-15  5.585E-01  1.363E+03
  3.600E-02  1.725E-01  2.596E-13  2.933E-17  5.222E-15  4.438E-01  1.321E+03
  3.600E-02  1.810E-01  2.554E-13  2.246E-17  5.489E-15  3.493E-01  1.281E+03
  3.600E-02  1.894E-01  2.510E-13  7.539E-19  5.756E-15  2.722E-01  1.242E+03
  3.600E-02  1.978E-01  2.464E-13 -1.990E-17  6.015E-15  2.100E-01  1.204E+03
  3.600E-02  2.062E-01  2.417E-13 -3.346E-17  6.261E-15  1.605E-01  1.167E+03
  3.600E-02  2.146E-01  2.367E-13 -2.439E-17  6.480E-15  1.215E-01  1.131E+03
  3.600E-02  2.230E-01  2.315E-13  3.998E-18  6.681E-15  9.114E-02  1.096E+03
  3.600E-02  2.315E-01  2.262E-13  7.705E-18  6.904E-15  6.773E-02  1.063E+03
  3.600E-02  2.399E-01  2.207E-13 -3.498E-17  7.140E-15  4.987E-02  1.030E+03
  3.600E-02  2.483E-01  2.150E-13 -8.560E-17  7.316E-15  3.640E-02  9.988E+02
  3.600E-02  2.567E-01  2.093E-13 -1.006E-16  7.428E-15  2.633E-02  9.686E+02
  3.600E-02  2.651E-01  2.034E-13 -1.055E-16  7.527E-15  1.889E-02  9.395E+02
  3.600E-02  2.735E-01  1.974E-13 -1.216E-16  7.621E-15  1.344E-02  9.114E+02
  3.600E-02  2.820E-01  1.913E-13 -1.387E-16  7.715E-15  9.481E-03  8.845E+02
  3.600E-02  2.904E-01  1.852E-13 -1.533E-16  7.826E-15  6.638E-03  8.586E+02
  3.600E-02  2.988E-01  1.789E-13 -1.649E-16  7.923E-15  4.613E-03  8.338E+02
  3.600E-02  3.072E-01  1.727E-13 -1.535E-16  7.978E-15  3.183E-03  8.100E+02
  3.600E-02  3.156E-01  1.663E-13 -1.166E-16  8.026E-15  2.181E-03  7.873E+02
  3.600E-02  3.240E-01  1.599E-13 -9.075E-17  8.089E-15  1.485E-03  7.656E+02
  3.600E-02  3.325E-01  1.534E-13 -1.186E-16  8.159E-15  1.006E-03  7.450E+02
  3.600E-02  3.409E-01  1.468E-13 -1.809E-16  8.222E-15  6.780E-04  7.254E+02
  3.600E-02  3.493E-01  1.402E-13 -2.522E-16  8.279E-15  4.555E-04  7.068E+02
  3.600E-02  3.577E-01  1.336E-13 -3.379E-16  8.356E-15  3.056E-04  6.892E+02
  3.600E-02  3.661E-01  1.269E-13 -4.111E-16  8.450E-15  2.052E-04  6.727E+02
  3.600E-02  3.745E-01  1.201E-13 -4.332E-16  8.530E-15  1.384E-04  6.571E+02
  3.600E-02  3.830E-01  1.134E-13 -4.324E-16  8.584E-15  9.425E-05  6.426E+02
  3.600E-02  3.914E-01  1.065E-13 -4.542E-16  8.672E-15  6.520E-05  6.290E+02
  3.600E-02  3.998E-01  9.959E-14 -5.085E-16  8.810E-15  4.618E-05  6.165E+02
  3.600E-02  4.082E-01  9.252E-14 -5.815E-16  8.957E-15  3.378E-05  6.049E+02
  3.600E-02  4.166E-01  8.528E-14 -6.578E-16  9.154E-15  2.572E-05  5.943E+02
  3.600E-02  4.250E-01  7.783E-14 -6.999E-16  9.447E-15  2.047E-05  5.847E+02
  3.600E-02  4.335E-01  7.014E-14 -6.385E-16  9.789E-15  1.707E-05  5.760E+02
  3.600E-02  4.419E-01  6.226E-14 -5.022E-16  1.016E-14  1.484E-05  5.683E+02
  3.600E-02  4.503E-01  5.419E-14 -4.354E-16  1.048E-14  1.338E-05  5.616E+02
  3.600E-02  4.587E-01  4.597E-14 -4.607E-16  1.061E-14  1.240E-05  5.559E+02
  3.600E-02  4.671E-01  3.764E-14 -4.404E-16  1.051E-14  1.174E-05  5.511E+02
  3.600E-02  4.755E-01  2.928E-14 -2.941E-16  1.027E-14  1.130E-05  5.473E+02
  3.600E-02  4.840E-01  2.098E-14 -2.065E-16  1.017E-14  1.101E-05  5.444E+02
  3.600E-02  4.924E-01  1.259E-14 -1.474E-16  1.038E-14  1.084E-05  5.425E+02
  3.600E-02  5.008E-01  4.138E-15 -3.436E-16  1.077E-14  1.077E-05  5.415E+02
  3.600E-02  5.050E-01  0.000E+00 -3.436E-16  1.077E-14  1.077E-05  5.415E+02
  4.400E-02  0.000E+00  2.915E-13  0.000E+00  0.000E+00  2.820E-01  1.591E+03
  4.400E-02  4.208E-03  2.915E-13  9.870E-17 -1.903E-17  2.820E-01  1.591E+03
  4.400E-02  1.262E-02  2.914E-13  6.533E-17  8.337E-17  3.011E-01  1.592E+03
  4.400E-02  2.104E-02  2.912E-13  2.270E-17  3.472E-16  3.398E-01  1.594E+03
  4.400E-02  2.946E-02  2.910E-13  1.418E-16  2.894E-16  3.991E-01  1.598E+03
  4.400E-02  3.787E-02  2.907E-13  2.119E-16  4.542E-16  4.801E-01  1.603E+03
  4.400E-02  4.629E-02  2.904E-13  1.723E-16  4.235E-16  5.847E-01  1.609E+03
  4.400E-02  5.471E-02  2.900E-13  1.982E-16  5.357E-16  7.147E-01  1.617E+03
  4.400E-02  6.313E-02  2.894E-13  1.629E-16  7.745E-16  8.720E-01  1.625E+03
  4.400E-02  7.154E-02  2.888E-13  8.415E-17  8.637E-16  1.059E+00  1.635E+03
  4.400E-02  7.996E-02  2.879E-13  3.686E-17  1.077E-15  1.276E+00  1.646E+03