VARIABLES="XP","YP","P","U","V","TS","TF"
ZONE T="Zone 001"I=    82 J=    22 F=POINT
  0.000E+00  0.000E+00  1.019E+05  0.000E+00  0.000E+00  2.938E+02  2.938E+02
  0.000E+00  3.156E-03  1.019E+05  0.000E+00  0.000E+00  2.938E+02  2.938E+02
  0.000E+00  9.469E-03  1.019E+05  0.000E+00  0.000E+00  2.938E+02  2.938E+02
  0.000E+00  1.578E-02  1.019E+05  0.000E+00  0.000E+00  2.938E+02  2.938E+02
  0.000E+00  2.209E-02  1.019E+05  0.000E+00  0.000E+00  2.938E+02  2.938E+02
  0.000E+00  2.841E-02  1.019E+05  0.000E+00  0.000E+00  2.938E+02  2.938E+02
  0.000E+00  3.472E-02  1.019E+05  0.000E+00  0.000E+00  2.938E+02  2.938E+02
  0.000E+00  4.103E-02  1.019E+05  0.000E+00  0.000E+00  2.938E+02  2.938E+02
  0.000E+00  4.734E-02  1.019E+05  0.000E+00  0.000E+00  2.938E+02  2.938E+02
  0.000E+00  5.366E-02  1.019E+05  0.000E+00  0.000E+00  2.938E+02  2.938E+02
  0.000E+00  5.997E-02  1.018E+05  0.000E+00  0.000E+00  2.938E+02  2.938E+02
  0.000E+00  6.628E-02  1.018E+05  0.000E+00  0.000E+00  2.938E+02  2.938E+02
  0.000E+00  7.259E-02  1.018E+05  0.000E+00  0.000E+00  2.938E+02  2.938E+02
  0.000E+00  7.891E-02  1.018E+05  0.000E+00  0.000E+00  2.938E+02  2.938E+02
  0.000E+00  8.522E-02  1.018E+05  0.000E+00  0.000E+00  2.939E+02  2.939E+02
  0.000E+00  9.153E-02  1.018E+05  0.000E+00  0.000E+00  2.939E+02  2.939E+02
  0.000E+00  9.784E-02  1.018E+05  0.000E+00  0.000E+00  2.940E+02  2.940E+02
  0.000E+00  1.042E-01  1.018E+05  0.000E+00  0.000E+00  2.940E+02  2.940E+02
  0.000E+00  1.105E-01  1.018E+05  0.000E+00  0.000E+00  2.942E+02  2.941E+02
  0.000E+00  1.168E-01  1.018E+05  0.000E+00  0.000E+00  2.943E+02  2.943E+02
  0.000E+00  1.231E-01  1.018E+05  0.000E+00  0.000E+00  2.945E+02  2.945E+02
  0.000E+00  1.294E-01  1.018E+05  0.000E+00  0.000E+00  2.947E+02  2.947E+02
  0.000E+00  1.357E-01  1.018E+05  0.000E+00  0.000E+00  2.950E+02  2.950E+02
  0.000E+00  1.420E-01  1.017E+05  0.000E+00  0.000E+00  2.953E+02  2.953E+02
  0.000E+00  1.483E-01  1.017E+05  0.000E+00  0.000E+00  2.956E+02  2.956E+02
  0.000E+00  1.547E-01  1.017E+05  0.000E+00  0.000E+00  2.959E+02  2.959E+02
  0.000E+00  1.610E-01  1.017E+05  0.000E+00  0.000E+00  2.962E+02  2.962E+02
  0.000E+00  1.673E-01  1.017E+05  0.000E+00  0.000E+00  2.965E+02  2.965E+02
  0.000E+00  1.736E-01  1.017E+05  0.000E+00  0.000E+00  2.968E+02  2.967E+02
  0.000E+00  1.799E-01  1.017E+05  0.000E+00  0.000E+00  2.969E+02  2.969E+02
  0.000E+00  1.862E-01  1.017E+05  0.000E+00  0.000E+00  2.970E+02  2.970E+02
  0.000E+00  1.925E-01  1.017E+05  0.000E+00  0.000E+00  2.971E+02  2.971E+02
  0.000E+00  1.988E-01  1.017E+05  0.000E+00  0.000E+00  2.970E+02  2.970E+02
  0.000E+00  2.052E-01  1.017E+05  0.000E+00  0.000E+00  2.969E+02  2.969E+02
  0.000E+00  2.115E-01  1.017E+05  0.000E+00  0.000E+00  2.967E+02  2.967E+02
  0.000E+00  2.178E-01  1.017E+05  0.000E+00  0.000E+00  2.965E+02  2.965E+02
  0.000E+00  2.241E-01  1.017E+05  0.000E+00  0.000E+00  2.963E+02  2.963E+02
  0.000E+00  2.304E-01  1.016E+05  0.000E+00  0.000E+00  2.960E+02  2.960E+02
  0.000E+00  2.367E-01  1.016E+05  0.000E+00  0.000E+00  2.957E+02  2.957E+02
  0.000E+00  2.430E-01  1.016E+05  0.000E+00  0.000E+00  2.954E+02  2.954E+02
  0.000E+00  2.493E-01  1.016E+05  0.000E+00  0.000E+00  2.952E+02  2.952E+02
  0.000E+00  2.557E-01  1.016E+05  0.000E+00  0.000E+00  2.949E+02  2.949E+02
  0.000E+00  2.620E-01  1.016E+05  0.000E+00  0.000E+00  2.947E+02  2.947E+02
  0.000E+00  2.683E-01  1.016E+05  0.000E+00  0.000E+00  2.944E+02  2.945E+02
  0.000E+00  2.746E-01  1.016E+05  0.000E+00  0.000E+00  2.942E+02  2.943E+02
  0.000E+00  2.809E-01  1.016E+05  0.000E+00  0.000E+00  2.941E+02  2.941E+02
  0.000E+00  2.872E-01  1.016E+05  0.000E+00  0.000E+00  2.939E+02  2.939E+02
  0.000E+00  2.935E-01  1.016E+05  0.000E+00  0.000E+00  2.938E+02  2.938E+02
  0.000E+00  2.998E-01  1.016E+05  0.000E+00  0.000E+00  2.937E+02  2.937E+02
  0.000E+00  3.062E-01  1.016E+05  0.000E+00  0.000E+00  2.936E+02  2.936E+02
  0.000E+00  3.125E-01  1.015E+05  0.000E+00  0.000E+00  2.935E+02  2.936E+02
  0.000E+00  3.188E-01  1.015E+05  0.000E+00  0.000E+00  2.935E+02  2.935E+02
  0.000E+00  3.251E-01  1.015E+05  0.000E+00  0.000E+00  2.934E+02  2.934E+02
  0.000E+00  3.314E-01  1.015E+05  0.000E+00  0.000E+00  2.934E+02  2.934E+02
  0.000E+00  3.377E-01  1.015E+05  0.000E+00  0.000E+00  2.934E+02  2.934E+02
  0.000E+00  3.440E-01  1.015E+05  0.000E+00  0.000E+00  2.933E+02  2.933E+02
  0.000E+00  3.503E-01  1.015E+05  0.000E+00  0.000E+00  2.933E+02  2.933E+02
  0.000E+00  3.567E-01  1.015E+05  0.000E+00  0.000E+00  2.933E+02  2.933E+02
  0.000E+00  3.630E-01  1.015E+05  0.000E+00  0.000E+00  2.933E+02  2.933E+02
  0.000E+00  3.693E-01  1.015E+05  0.000E+00  0.000E+00  2.933E+02  2.933E+02
  0.000E+00  3.756E-01  1.015E+05  0.000E+00  0.000E+00  2.933E+02  2.933E+02
  0.000E+00  3.819E-01  1.015E+05  0.000E+00  0.000E+00  2.933E+02  2.933E+02
  0.000E+00  3.882E-01  1.015E+05  0.000E+00  0.000E+00  2.932E+02  2.932E+02
  0.000E+00  3.945E-01  1.015E+05  0.000E+00  0.000E+00  2.932E+02  2.932E+02
  0.000E+00  4.008E-01  1.014E+05  0.000E+00  0.000E+00  2.932E+02  2.932E+02
  0.000E+00  4.072E-01  1.014E+05  0.000E+00  0.000E+00  2.932E+02  2.932E+02
  0.000E+00  4.135E-01  1.014E+05  0.000E+00  0.000E+00  2.932E+02  2.932E+02
  0.000E+00  4.198E-01  1.014E+05  0.000E+00  0.000E+00  2.932E+02  2.932E+02
  0.000E+00  4.261E-01  1.014E+05  0.000E+00  0.000E+00  2.932E+02  2.932E+02
  0.000E+00  4.324E-01  1.014E+05  0.000E+00  0.000E+00  2.932E+02  2.932E+02
  0.000E+00  4.387E-01  1.014E+05  0.000E+00  0.000E+00  2.932E+02  2.932E+02
  0.000E+00  4.450E-01  1.014E+05  0.000E+00  0.000E+00  2.932E+02  2.932E+02
  0.000E+00  4.513E-01  1.014E+05  0.000E+00  0.000E+00  2.932E+02  2.932E+02
  0.000E+00  4.577E-01  1.014E+05  0.000E+00  0.000E+00  2.932E+02  2.932E+02
  0.000E+00  4.640E-01  1.014E+05  0.000E+00  0.000E+00  2.932E+02  2.932E+02
  0.000E+00  4.703E-01  1.014E+05  0.000E+00  0.000E+00  2.932E+02  2.932E+02
  0.000E+00  4.766E-01  1.014E+05  0.000E+00  0.000E+00  2.932E+02  2.932E+02
  0.000E+00  4.829E-01  1.014E+05  0.000E+00  0.000E+00  2.931E+02  2.931E+02
  0.000E+00  4.892E-01  1.013E+05  0.000E+00  0.000E+00  2.931E+02  2.931E+02
  0.000E+00  4.955E-01  1.013E+05  0.000E+00  0.000E+00  2.931E+02  2.931E+02
  0.000E+00  5.018E-01  1.013E+05  0.000E+00  0.000E+00  2.931E+02  2.931E+02
  0.000E+00  5.050E-01  1.013E+05  0.000E+00  0.000E+00  2.931E+02  2.931E+02
  4.000E-03  0.000E+00  1.019E+05  8.159E-07  6.500E-02  2.938E+02  2.938E+02
  4.000E-03  3.156E-03  1.019E+05  8.159E-07  6.498E-02  2.938E+02  2.938E+02
  4.000E-03  9.469E-03  1.019E+05  3.451E-07  6.499E-02  2.938E+02  2.938E+02
  4.000E-03  1.578E-02  1.019E+05  2.431E-07  6.500E-02  2.938E+02  2.938E+02
  4.000E-03  2.209E-02  1.019E+05  2.385E-07  6.499E-02  2.938E+02  2.938E+02
  4.000E-03  2.841E-02  1.019E+05  7.592E-07  6.499E-02  2.938E+02  2.938E+02
  4.000E-03  3.472E-02  1.019E+05  1.433E-06  6.500E-02  2.938E+02  2.938E+02
  4.000E-03  4.103E-02  1.019E+05  7.270E-07  6.500E-02  2.938E+02  2.938E+02
  4.000E-03  4.734E-02  1.019E+05  1.560E-07  6.500E-02  2.938E+02  2.938E+02
  4.000E-03  5.366E-02  1.019E+05  7.211E-08  6.499E-02  2.938E+02  2.938E+02
  4.000E-03  5.997E-02  1.018E+05  1.917E-08  6.499E-02  2.938E+02  2.938E+02
  4.000E-03  6.628E-02  1.018E+05  6.982E-09  6.499E-02  2.938E+02  2.938E+02
  4.000E-03  7.259E-02  1.018E+05  2.514E-09  6.499E-02  2.938E+02  2.938E+02
  4.000E-03  7.891E-02  1.018E+05  1.418E-09  6.499E-02  2.938E+02  2.938E+02
  4.000E-03  8.522E-02  1.018E+05  1.084E-09  6.499E-02  2.939E+02  2.939E+02
  4.000E-03  9.153E-02  1.018E+05  9.356E-10  6.500E-02  2.939E+02  2.939E+02
  4.000E-03  9.784E-02  1.018E+05  8.275E-10  6.500E-02  2.940E+02  2.940E+02
  4.000E-03  1.042E-01  1.018E+05  7.198E-10  6.500E-02  2.940E+02  2.940E+02
  4.000E-03  1.105E-01  1.018E+05  5.953E-10  6.499E-02  2.942E+02  2.941E+02
  4.000E-03  1.168E-01  1.018E+05  4.932E-10  6.499E-02  2.943E+02  2.943E+02
  4.000E-03  1.231E-01  1.018E+05  3.826E-10  6.499E-02  2.945E+02  2.945E+02
  4.000E-03  1.294E-01  1.018E+05  3.215E-10  6.499E-02  2.947E+02  2.947E+02
  4.000E-03  1.357E-01  1.018E+05  3.236E-10  6.499E-02  2.950E+02  2.950E+02
  4.000E-03  1.420E-01  1.017E+05  2.783E-10  6.499E-02  2.953E+02  2.953E+02
  4.000E-03  1.483E-01  1.017E+05  2.050E-10  6.499E-02  2.956E+02  2.956E+02
  4.000E-03  1.547E-01  1.017E+05  1.548E-10  6.499E-02  2.959E+02  2.959E+02
  4.000E-03  1.610E-01  1.017E+05  1.206E-10  6.500E-02  2.962E+02  2.962E+02
  4.000E-03  1.673E-01  1.017E+05  7.150E-11  6.500E-02  2.965E+02  2.965E+02
  4.000E-03  1.736E-01  1.017E+05  2.542E-11  6.500E-02  2.968E+02  2.967E+02
  4.000E-03  1.799E-01  1.017E+05 -9.593E-12  6.499E-02  2.969E+02  2.969E+02
  4.000E-03  1.862E-01  1.017E+05  1.626E-11  6.499E-02  2.970E+02  2.970E+02
  4.000E-03  1.925E-01  1.017E+05  5.064E-11  6.499E-02  2.971E+02  2.971E+02
  4.000E-03  1.988E-01  1.017E+05  3.428E-11  6.499E-02  2.970E+02  2.970E+02
  4.000E-03  2.052E-01  1.017E+05  3.391E-11  6.499E-02  2.969E+02  2.969E+02
  4.000E-03  2.115E-01  1.017E+05  2.682E-11  6.499E-02  2.967E+02  2.967E+02
  4.000E-03  2.178E-01  1.017E+05  1.817E-11  6.499E-02  2.965E+02  2.965E+02
  4.000E-03  2.241E-01  1.017E+05  9.302E-12  6.499E-02  2.963E+02  2.963E+02
  4.000E-03  2.304E-01  1.016E+05 -1.214E-11  6.500E-02  2.960E+02  2.960E+02
  4.000E-03  2.367E-01  1.016E+05 -2.522E-11  6.500E-02  2.957E+02  2.957E+02
  4.000E-03  2.430E-01  1.016E+05  7.592E-12  6.500E-02  2.954E+02  2.954E+02
  4.000E-03  2.493E-01  1.016E+05 -8.176E-12  6.499E-02  2.952E+02  2.952E+02
  4.000E-03  2.557E-01  1.016E+05 -5.090E-12  6.499E-02  2.949E+02  2.949E+02
  4.000E-03  2.620E-01  1.016E+05  2.171E-11  6.499E-02  2.947E+02  2.947E+02
  4.000E-03  2.683E-01  1.016E+05  5.755E-12  6.499E-02  2.944E+02  2.945E+02
  4.000E-03  2.746E-01  1.016E+05  1.482E-11  6.499E-02  2.942E+02  2.943E+02
  4.000E-03  2.809E-01  1.016E+05  2.285E-11  6.499E-02  2.941E+02  2.941E+02
  4.000E-03  2.872E-01  1.016E+05  2.271E-11  6.500E-02  2.939E+02  2.939E+02
  4.000E-03  2.935E-01  1.016E+05 -2.890E-11  6.500E-02  2.938E+02  2.938E+02
  4.000E-03  2.998E-01  1.016E+05 -3.053E-11  6.500E-02  2.937E+02  2.937E+02
  4.000E-03  3.062E-01  1.016E+05 -1.717E-11  6.499E-02  2.936E+02  2.936E+02
  4.000E-03  3.125E-01  1.015E+05  2.709E-12  6.499E-02  2.935E+02  2.936E+02
  4.000E-03  3.188E-01  1.015E+05  3.508E-11  6.499E-02  2.935E+02  2.935E+02
  4.000E-03  3.251E-01  1.015E+05  8.754E-12  6.499E-02  2.934E+02  2.934E+02
  4.000E-03  3.314E-01  1.015E+05  3.178E-12  6.499E-02  2.934E+02  2.934E+02
  4.000E-03  3.377E-01  1.015E+05 -1.559E-13  6.499E-02  2.934E+02  2.934E+02
  4.000E-03  3.440E-01  1.015E+05  3.433E-12  6.499E-02  2.933E+02  2.933E+02
  4.000E-03  3.503E-01  1.015E+05  9.728E-12  6.499E-02  2.933E+02  2.933E+02
  4.000E-03  3.567E-01  1.015E+05  1.497E-11  6.500E-02  2.933E+02  2.933E+02
  4.000E-03  3.630E-01  1.015E+05 -2.696E-11  6.500E-02  2.933E+02  2.933E+02
  4.000E-03  3.693E-01  1.015E+05 -2.872E-11  6.500E-02  2.933E+02  2.933E+02
  4.000E-03  3.756E-01  1.015E+05 -2.169E-11  6.499E-02  2.933E+02  2.933E+02
  4.000E-03  3.819E-01  1.015E+05 -2.527E-12  6.499E-02  2.933E+02  2.933E+02
  4.000E-03  3.882E-01  1.015E+05  3.383E-11  6.499E-02  2.932E+02  2.932E+02
  4.000E-03  3.945E-01  1.015E+05  1.385E-11  6.499E-02  2.932E+02  2.932E+02
  4.000E-03  4.008E-01  1.014E+05  8.382E-12  6.499E-02  2.932E+02  2.932E+02
  4.000E-03  4.072E-01  1.014E+05 -2.852E-12  6.499E-02  2.932E+02  2.932E+02
  4.000E-03  4.135E-01  1.014E+05 -9.615E-12  6.499E-02  2.932E+02  2.932E+02
  4.000E-03  4.198E-01  1.014E+05 -7.949E-12  6.499E-02  2.932E+02  2.932E+02
  4.000E-03  4.261E-01  1.014E+05 -1.509E-11  6.500E-02  2.932E+02  2.932E+02
  4.000E-03  4.324E-01  1.014E+05  1.290E-12  6.500E-02  2.932E+02  2.932E+02
  4.000E-03  4.387E-01  1.014E+05  1.412E-11  6.500E-02  2.932E+02  2.932E+02
  4.000E-03  4.450E-01  1.014E+05 -2.755E-11  6.499E-02  2.932E+02  2.932E+02
  4.000E-03  4.513E-01  1.014E+05 -9.233E-12  6.499E-02  2.932E+02  2.932E+02
  4.000E-03  4.577E-01  1.014E+05  1.579E-11  6.499E-02  2.932E+02  2.932E+02
  4.000E-03  4.640E-01  1.014E+05 -2.513E-12  6.499E-02  2.932E+02  2.932E+02
  4.000E-03  4.703E-01  1.014E+05  6.372E-12  6.499E-02  2.932E+02  2.932E+02
  4.000E-03  4.766E-01  1.014E+05  1.108E-11  6.499E-02  2.932E+02  2.932E+02
  4.000E-03  4.829E-01  1.014E+05  8.661E-12  6.499E-02  2.931E+02  2.931E+02
  4.000E-03  4.892E-01  1.013E+05 -9.964E-12  6.499E-02  2.931E+02  2.931E+02
  4.000E-03  4.955E-01  1.013E+05 -4.065E-11  6.499E-02  2.931E+02  2.931E+02
  4.000E-03  5.018E-01  1.013E+05 -5.676E-11  6.500E-02  2.931E+02  2.931E+02
  4.000E-03  5.050E-01  1.013E+05 -5.676E-11  6.500E-02  2.931E+02  2.931E+02
  1.200E-02  0.000E+00  1.019E+05  1.109E-06  6.500E-02  2.938E+02  2.938E+02
  1.200E-02  3.156E-03  1.019E+05  1.109E-06  6.498E-02  2.938E+02  2.938E+02
  1.200E-02  9.469E-03  1.019E+05  4.972E-07  6.500E-02  2.938E+02  2.938E+02
  1.200E-02  1.578E-02  1.019E+05  2.964E-07  6.500E-02  2.938E+02  2.938E+02
  1.200E-02  2.209E-02  1.019E+05 -4.992E-07  6.500E-02  2.938E+02  2.938E+02
  1.200E-02  2.841E-02  1.019E+05  2.598E-06  6.500E-02  2.938E+02  2.938E+02
  1.200E-02  3.472E-02  1.019E+05  8.146E-06  6.500E-02  2.938E+02  2.938E+02
  1.200E-02  4.103E-02  1.019E+05  2.552E-06  6.501E-02  2.938E+02  2.938E+02
  1.200E-02  4.734E-02  1.019E+05 -6.636E-07  6.500E-02  2.938E+02  2.938E+02
  1.200E-02  5.366E-02  1.019E+05 -2.332E-08  6.500E-02  2.938E+02  2.938E+02
  1.200E-02  5.997E-02  1.018E+05 -4.739E-08  6.500E-02  2.938E+02  2.938E+02
  1.200E-02  6.628E-02  1.018E+05 -1.261E-08  6.500E-02  2.938E+02  2.938E+02
  1.200E-02  7.259E-02  1.018E+05 -4.136E-09  6.500E-02  2.938E+02  2.938E+02
  1.200E-02  7.891E-02  1.018E+05  4.654E-10  6.500E-02  2.938E+02  2.938E+02
  1.200E-02  8.522E-02  1.018E+05  2.095E-09  6.500E-02  2.939E+02  2.939E+02
  1.200E-02  9.153E-02  1.018E+05  2.519E-09  6.500E-02  2.939E+02  2.939E+02
  1.200E-02  9.784E-02  1.018E+05  2.444E-09  6.501E-02  2.940E+02  2.940E+02
  1.200E-02  1.042E-01  1.018E+05  2.203E-09  6.500E-02  2.940E+02  2.940E+02
  1.200E-02  1.105E-01  1.018E+05  1.893E-09  6.500E-02  2.942E+02  2.941E+02
  1.200E-02  1.168E-01  1.018E+05  1.607E-09  6.500E-02  2.943E+02  2.943E+02
  1.200E-02  1.231E-01  1.018E+05  1.321E-09  6.500E-02  2.945E+02  2.945E+02
  1.200E-02  1.294E-01  1.018E+05  1.113E-09  6.500E-02  2.947E+02  2.947E+02
  1.200E-02  1.357E-01  1.018E+05  9.060E-10  6.500E-02  2.950E+02  2.950E+02
  1.200E-02  1.420E-01  1.017E+05  6.527E-10  6.500E-02  2.953E+02  2.953E+02
  1.200E-02  1.483E-01  1.017E+05  4.391E-10  6.500E-02  2.956E+02  2.956E+02
  1.200E-02  1.547E-01  1.017E+05  2.861E-10  6.500E-02  2.959E+02  2.959E+02
  1.200E-02  1.610E-01  1.017E+05  1.966E-10  6.500E-02  2.962E+02  2.962E+02
  1.200E-02  1.673E-01  1.017E+05  1.293E-10  6.501E-02  2.965E+02  2.965E+02
  1.200E-02  1.736E-01  1.017E+05  9.979E-11  6.500E-02  2.968E+02  2.967E+02
  1.200E-02  1.799E-01  1.017E+05  1.055E-10  6.500E-02  2.969E+02  2.969E+02
  1.200E-02  1.862E-01  1.017E+05  1.715E-10  6.500E-02  2.970E+02  2.970E+02
  1.200E-02  1.925E-01  1.017E+05  2.046E-10  6.500E-02  2.971E+02  2.971E+02
  1.200E-02  1.988E-01  1.017E+05  1.545E-10  6.500E-02  2.970E+02  2.970E+02
  1.200E-02  2.052E-01  1.017E+05  1.072E-10  6.500E-02  2.969E+02  2.969E+02
  1.200E-02  2.115E-01  1.017E+05  6.922E-11  6.500E-02  2.967E+02  2.967E+02
  1.200E-02  2.178E-01  1.017E+05  3.925E-11  6.500E-02  2.965E+02  2.965E+02
  1.200E-02  2.241E-01  1.017E+05  1.340E-11  6.500E-02  2.963E+02  2.963E+02
  1.200E-02  2.304E-01  1.016E+05 -4.167E-11  6.500E-02  2.960E+02  2.960E+02
  1.200E-02  2.367E-01  1.016E+05 -9.515E-11  6.501E-02  2.957E+02  2.957E+02
  1.200E-02  2.430E-01  1.016E+05 -7.753E-11  6.500E-02  2.954E+02  2.954E+02
  1.200E-02  2.493E-01  1.016E+05 -6.976E-11  6.500E-02  2.952E+02  2.952E+02
  1.200E-02  2.557E-01  1.016E+05 -4.445E-12  6.500E-02  2.949E+02  2.949E+02
  1.200E-02  2.620E-01  1.016E+05  8.161E-11  6.500E-02  2.947E+02  2.947E+02
  1.200E-02  2.683E-01  1.016E+05  9.504E-11  6.500E-02  2.944E+02  2.945E+02
  1.200E-02  2.746E-01  1.016E+05  8.754E-11  6.500E-02  2.942E+02  2.943E+02
  1.200E-02  2.809E-01  1.016E+05  5.621E-11  6.500E-02  2.941E+02  2.941E+02
  1.200E-02  2.872E-01  1.016E+05  1.403E-11  6.500E-02  2.939E+02  2.939E+02
  1.200E-02  2.935E-01  1.016E+05 -6.787E-11  6.501E-02  2.938E+02  2.938E+02
  1.200E-02  2.998E-01  1.016E+05 -7.355E-11  6.500E-02  2.937E+02  2.937E+02
  1.200E-02  3.062E-01  1.016E+05 -5.473E-11  6.500E-02  2.936E+02  2.936E+02
  1.200E-02  3.125E-01  1.015E+05 -3.021E-11  6.500E-02  2.935E+02  2.936E+02
  1.200E-02  3.188E-01  1.015E+05  9.571E-12  6.500E-02  2.935E+02  2.935E+02
  1.200E-02  3.251E-01  1.015E+05  7.379E-12  6.500E-02  2.934E+02  2.934E+02
  1.200E-02  3.314E-01  1.015E+05  2.712E-11  6.500E-02  2.934E+02  2.934E+02
  1.200E-02  3.377E-01  1.015E+05  4.389E-11  6.500E-02  2.934E+02  2.934E+02
  1.200E-02  3.440E-01  1.015E+05  4.838E-11  6.500E-02  2.933E+02  2.933E+02
  1.200E-02  3.503E-01  1.015E+05  4.412E-11  6.500E-02  2.933E+02  2.933E+02
  1.200E-02  3.567E-01  1.015E+05  2.415E-11  6.500E-02  2.933E+02  2.933E+02
  1.200E-02  3.630E-01  1.015E+05 -4.879E-11  6.501E-02  2.933E+02  2.933E+02
  1.200E-02  3.693E-01  1.015E+05 -6.132E-11  6.500E-02  2.933E+02  2.933E+02
  1.200E-02  3.756E-01  1.015E+05 -4.565E-11  6.500E-02  2.933E+02  2.933E+02
  1.200E-02  3.819E-01  1.015E+05 -1.484E-11  6.500E-02  2.933E+02  2.933E+02
  1.200E-02  3.882E-01  1.015E+05  1.636E-11  6.500E-02  2.932E+02  2.932E+02
  1.200E-02  3.945E-01  1.015E+05 -9.166E-12  6.500E-02  2.932E+02  2.932E+02
  1.200E-02  4.008E-01  1.014E+05 -6.236E-12  6.500E-02  2.932E+02  2.932E+02
  1.200E-02  4.072E-01  1.014E+05  1.805E-11  6.500E-02  2.932E+02  2.932E+02
  1.200E-02  4.135E-01  1.014E+05  4.798E-11  6.500E-02  2.932E+02  2.932E+02
  1.200E-02  4.198E-01  1.014E+05  6.696E-11  6.500E-02  2.932E+02  2.932E+02
  1.200E-02  4.261E-01  1.014E+05  3.009E-11  6.500E-02  2.932E+02  2.932E+02
  1.200E-02  4.324E-01  1.014E+05 -1.452E-11  6.501E-02  2.932E+02  2.932E+02
  1.200E-02  4.387E-01  1.014E+05 -5.523E-11  6.500E-02  2.932E+02  2.932E+02
  1.200E-02  4.450E-01  1.014E+05 -1.082E-10  6.500E-02  2.932E+02  2.932E+02
  1.200E-02  4.513E-01  1.014E+05 -4.315E-11  6.500E-02  2.932E+02  2.932E+02
  1.200E-02  4.577E-01  1.014E+05  3.959E-11  6.500E-02  2.932E+02  2.932E+02
  1.200E-02  4.640E-01  1.014E+05  5.764E-11  6.500E-02  2.932E+02  2.932E+02
  1.200E-02  4.703E-01  1.014E+05  5.532E-11  6.500E-02  2.932E+02  2.932E+02
  1.200E-02  4.766E-01  1.014E+05  1.693E-11  6.500E-02  2.932E+02  2.932E+02
  1.200E-02  4.829E-01  1.014E+05 -3.805E-11  6.500E-02  2.932E+02  2.932E+02
  1.200E-02  4.892E-01  1.013E+05 -8.400E-11  6.500E-02  2.931E+02  2.931E+02
  1.200E-02  4.955E-01  1.013E+05 -1.117E-10  6.500E-02  2.931E+02  2.931E+02
  1.200E-02  5.018E-01  1.013E+05 -1.242E-10  6.500E-02  2.931E+02  2.931E+02
  1.200E-02  5.050E-01  1.013E+05 -1.242E-10  6.500E-02  2.931E+02  2.931E+02
  2.000E-02  0.000E+00  1.019E+05  5.386E-07  6.500E-02  2.938E+02  2.938E+02
  2.000E-02  3.156E-03  1.019E+05  5.386E-07  6.498E-02  2.938E+02  2.938E+02
  2.000E-02  9.469E-03  1.019E+05  3.616E-07  6.500E-02  2.938E+02  2.938E+02
  2.000E-02  1.578E-02  1.019E+05  2.741E-07  6.500E-02  2.938E+02  2.938E+02
  2.000E-02  2.209E-02  1.019E+05 -4.735E-07  6.500E-02  2.938E+02  2.938E+02
  2.000E-02  2.841E-02  1.019E+05  2.660E-06  6.501E-02  2.938E+02  2.938E+02
  2.000E-02  3.472E-02  1.019E+05  8.158E-06  6.500E-02  2.938E+02  2.938E+02
  2.000E-02  4.103E-02  1.019E+05  2.610E-06  6.500E-02  2.938E+02  2.938E+02
  2.000E-02  4.734E-02  1.019E+05 -6.335E-07  6.500E-02  2.938E+02  2.938E+02
  2.000E-02  5.366E-02  1.019E+05 -5.718E-11  6.500E-02  2.938E+02  2.938E+02
  2.000E-02  5.997E-02  1.018E+05 -3.266E-08  6.500E-02  2.938E+02  2.938E+02
  2.000E-02  6.628E-02  1.018E+05 -2.594E-09  6.500E-02  2.938E+02  2.938E+02
  2.000E-02  7.259E-02  1.018E+05  2.691E-09  6.500E-02  2.938E+02  2.938E+02
  2.000E-02  7.891E-02  1.018E+05  5.297E-09  6.500E-02  2.938E+02  2.938E+02
  2.000E-02  8.522E-02  1.018E+05  5.628E-09  6.500E-02  2.939E+02  2.939E+02
  2.000E-02  9.153E-02  1.018E+05  5.199E-09  6.500E-02  2.939E+02  2.939E+02
  2.000E-02  9.784E-02  1.018E+05  4.469E-09  6.501E-02  2.940E+02  2.940E+02
  2.000E-02  1.042E-01  1.018E+05  3.723E-09  6.500E-02  2.940E+02  2.940E+02
  2.000E-02  1.105E-01  1.018E+05  3.096E-09  6.500E-02  2.941E+02  2.941E+02
  2.000E-02  1.168E-01  1.018E+05  2.541E-09  6.500E-02  2.943E+02  2.943E+02
  2.000E-02  1.231E-01  1.018E+05  2.074E-09  6.500E-02  2.945E+02  2.945E+02
  2.000E-02  1.294E-01  1.018E+05  1.645E-09  6.500E-02  2.947E+02  2.947E+02
  2.000E-02  1.357E-01  1.018E+05  1.218E-09  6.500E-02  2.950E+02  2.950E+02
  2.000E-02  1.420E-01  1.017E+05  8.944E-10  6.500E-02  2.953E+02  2.953E+02
  2.000E-02  1.483E-01  1.017E+05  6.499E-10  6.500E-02  2.956E+02  2.956E+02
  2.000E-02  1.547E-01  1.017E+05  4.650E-10  6.500E-02  2.959E+02  2.959E+02
  2.000E-02  1.610E-01  1.017E+05  3.537E-10  6.500E-02  2.962E+02  2.962E+02
  2.000E-02  1.673E-01  1.017E+05  3.032E-10  6.501E-02  2.965E+02  2.965E+02
  2.000E-02  1.736E-01  1.017E+05  2.870E-10  6.500E-02  2.967E+02  2.967E+02
  2.000E-02  1.799E-01  1.017E+05  2.762E-10  6.500E-02  2.969E+02  2.969E+02
  2.000E-02  1.862E-01  1.017E+05  2.644E-10  6.500E-02  2.970E+02  2.970E+02
  2.000E-02  1.925E-01  1.017E+05  2.299E-10  6.500E-02  2.971E+02  2.971E+02
  2.000E-02  1.988E-01  1.017E+05  1.827E-10  6.500E-02  2.970E+02  2.970E+02
  2.000E-02  2.052E-01  1.017E+05  1.316E-10  6.500E-02  2.969E+02  2.969E+02
  2.000E-02  2.115E-01  1.017E+05  8.797E-11  6.500E-02  2.967E+02  2.967E+02
  2.000E-02  2.178E-01  1.017E+05  4.065E-11  6.500E-02  2.965E+02  2.965E+02
  2.000E-02  2.241E-01  1.017E+05 -1.664E-12  6.500E-02  2.963E+02  2.963E+02
  2.000E-02  2.304E-01  1.016E+05 -4.851E-11  6.500E-02  2.960E+02  2.960E+02
  2.000E-02  2.367E-01  1.016E+05 -7.409E-11  6.501E-02  2.957E+02  2.957E+02
  2.000E-02  2.430E-01  1.016E+05 -5.690E-11  6.500E-02  2.954E+02  2.954E+02
  2.000E-02  2.493E-01  1.016E+05 -1.449E-11  6.500E-02  2.952E+02  2.952E+02
  2.000E-02  2.557E-01  1.016E+05  4.545E-11  6.500E-02  2.949E+02  2.949E+02
  2.000E-02  2.620E-01  1.016E+05  8.381E-11  6.500E-02  2.947E+02  2.947E+02
  2.000E-02  2.683E-01  1.016E+05  8.310E-11  6.500E-02  2.944E+02  2.945E+02
  2.000E-02  2.746E-01  1.016E+05  4.970E-11  6.500E-02  2.942E+02  2.943E+02
  2.000E-02  2.809E-01  1.016E+05  1.251E-11  6.500E-02  2.941E+02  2.941E+02
  2.000E-02  2.872E-01  1.016E+05 -2.181E-11  6.500E-02  2.939E+02  2.939E+02
  2.000E-02  2.935E-01  1.016E+05 -4.883E-11  6.501E-02  2.938E+02  2.938E+02
  2.000E-02  2.998E-01  1.016E+05 -5.369E-11  6.500E-02  2.937E+02  2.937E+02
  2.000E-02  3.062E-01  1.016E+05 -4.741E-11  6.500E-02  2.936E+02  2.936E+02
  2.000E-02  3.125E-01  1.015E+05 -2.763E-11  6.500E-02  2.936E+02  2.936E+02
  2.000E-02  3.188E-01  1.015E+05 -1.392E-12  6.500E-02  2.935E+02  2.935E+02
  2.000E-02  3.251E-01  1.015E+05  2.621E-11  6.500E-02  2.934E+02  2.934E+02
  2.000E-02  3.314E-01  1.015E+05  4.376E-11  6.500E-02  2.934E+02  2.934E+02
  2.000E-02  3.377E-01  1.015E+05  4.878E-11  6.500E-02  2.934E+02  2.934E+02
  2.000E-02  3.440E-01  1.015E+05  3.265E-11  6.500E-02  2.933E+02  2.933E+02
  2.000E-02  3.503E-01  1.015E+05  1.318E-11  6.500E-02  2.933E+02  2.933E+02
  2.000E-02  3.567E-01  1.015E+05 -1.315E-11  6.500E-02  2.933E+02  2.933E+02
  2.000E-02  3.630E-01  1.015E+05 -3.621E-11  6.501E-02  2.933E+02  2.933E+02
  2.000E-02  3.693E-01  1.015E+05 -3.613E-11  6.500E-02  2.933E+02  2.933E+02
  2.000E-02  3.756E-01  1.015E+05 -2.536E-11  6.500E-02  2.933E+02  2.933E+02
  2.000E-02  3.819E-01  1.015E+05 -1.266E-11  6.500E-02  2.933E+02  2.933E+02
  2.000E-02  3.882E-01  1.015E+05 -9.916E-12  6.500E-02  2.933E+02  2.933E+02
  2.000E-02  3.945E-01  1.015E+05 -5.526E-12  6.500E-02  2.932E+02  2.932E+02
  2.000E-02  4.008E-01  1.014E+05  1.039E-11  6.500E-02  2.932E+02  2.932E+02
  2.000E-02  4.072E-01  1.014E+05  3.947E-11  6.500E-02  2.932E+02  2.932E+02
  2.000E-02  4.135E-01  1.014E+05  5.340E-11  6.500E-02  2.932E+02  2.932E+02
  2.000E-02  4.198E-01  1.014E+05  4.503E-11  6.500E-02  2.932E+02  2.932E+02
  2.000E-02  4.261E-01  1.014E+05 -4.806E-13  6.500E-02  2.932E+02  2.932E+02
  2.000E-02  4.324E-01  1.014E+05 -4.708E-11  6.501E-02  2.932E+02  2.932E+02
  2.000E-02  4.387E-01  1.014E+05 -6.479E-11  6.500E-02  2.932E+02  2.932E+02
  2.000E-02  4.450E-01  1.014E+05 -4.828E-11  6.500E-02  2.932E+02  2.932E+02
  2.000E-02  4.513E-01  1.014E+05  8.647E-12  6.500E-02  2.932E+02  2.932E+02
  2.000E-02  4.577E-01  1.014E+05  5.517E-11  6.500E-02  2.932E+02  2.932E+02
  2.000E-02  4.640E-01  1.014E+05  6.627E-11  6.500E-02  2.932E+02  2.932E+02
  2.000E-02  4.703E-01  1.014E+05  3.523E-11  6.500E-02  2.932E+02  2.932E+02
  2.000E-02  4.766E-01  1.014E+05 -1.514E-11  6.500E-02  2.932E+02  2.932E+02
  2.000E-02  4.829E-01  1.014E+05 -6.621E-11  6.500E-02  2.932E+02  2.932E+02
  2.000E-02  4.892E-01  1.013E+05 -9.101E-11  6.500E-02  2.931E+02  2.932E+02
  2.000E-02  4.955E-01  1.013E+05 -9.495E-11  6.500E-02  2.931E+02  2.931E+02
  2.000E-02  5.018E-01  1.013E+05 -9.693E-11  6.500E-02  2.931E+02  2.931E+02
  2.000E-02  5.050E-01  1.013E+05 -9.693E-11  6.500E-02  2.931E+02  2.931E+02
  2.800E-02  0.000E+00  1.019E+05  4.110E-07  6.500E-02  2.938E+02  2.938E+02
  2.800E-02  3.156E-03  1.019E+05  4.110E-07  6.498E-02  2.938E+02  2.938E+02
  2.800E-02  9.469E-03  1.019E+05  3.558E-07  6.500E-02  2.938E+02  2.938E+02
  2.800E-02  1.578E-02  1.019E+05  3.477E-07  6.500E-02  2.938E+02  2.938E+02
  2.800E-02  2.209E-02  1.019E+05  3.357E-07  6.500E-02  2.938E+02  2.938E+02
  2.800E-02  2.841E-02  1.019E+05  9.433E-07  6.501E-02  2.938E+02  2.938E+02
  2.800E-02  3.472E-02  1.019E+05  9.450E-07  6.500E-02  2.938E+02  2.938E+02
  2.800E-02  4.103E-02  1.019E+05  8.753E-07  6.500E-02  2.938E+02  2.938E+02
  2.800E-02  4.734E-02  1.019E+05  1.945E-07  6.500E-02  2.938E+02  2.938E+02
  2.800E-02  5.366E-02  1.019E+05  1.262E-07  6.500E-02  2.938E+02  2.938E+02
  2.800E-02  5.997E-02  1.018E+05  5.407E-08  6.500E-02  2.938E+02  2.938E+02
  2.800E-02  6.628E-02  1.018E+05  3.244E-08  6.500E-02  2.938E+02  2.938E+02
  2.800E-02  7.259E-02  1.018E+05  2.058E-08  6.500E-02  2.938E+02  2.938E+02
  2.800E-02  7.891E-02  1.018E+05  1.461E-08  6.500E-02  2.938E+02  2.938E+02
  2.800E-02  8.522E-02  1.018E+05  1.094E-08  6.500E-02  2.939E+02  2.939E+02
  2.800E-02  9.153E-02  1.018E+05  8.440E-09  6.500E-02  2.939E+02  2.939E+02
  2.800E-02  9.784E-02  1.018E+05  6.555E-09  6.501E-02  2.939E+02  2.939E+02
  2.800E-02  1.042E-01  1.018E+05  5.136E-09  6.500E-02  2.940E+02  2.940E+02
  2.800E-02  1.105E-01  1.018E+05  4.069E-09  6.500E-02  2.941E+02  2.941E+02
  2.800E-02  1.168E-01  1.018E+05  3.219E-09  6.500E-02  2.943E+02  2.943E+02
  2.800E-02  1.231E-01  1.018E+05  2.551E-09  6.500E-02  2.945E+02  2.945E+02
  2.800E-02  1.294E-01  1.018E+05  1.977E-09  6.500E-02  2.947E+02  2.947E+02
  2.800E-02  1.357E-01  1.018E+05  1.514E-09  6.500E-02  2.950E+02  2.950E+02
  2.800E-02  1.420E-01  1.017E+05  1.207E-09  6.500E-02  2.953E+02  2.953E+02
  2.800E-02  1.483E-01  1.017E+05  9.402E-10  6.500E-02  2.956E+02  2.956E+02
  2.800E-02  1.547E-01  1.017E+05  7.253E-10  6.500E-02  2.959E+02  2.959E+02
  2.800E-02  1.610E-01  1.017E+05  5.553E-10  6.500E-02  2.962E+02  2.962E+02
  2.800E-02  1.673E-01  1.017E+05  4.426E-10  6.501E-02  2.965E+02  2.965E+02
  2.800E-02  1.736E-01  1.017E+05  3.787E-10  6.500E-02  2.967E+02  2.967E+02
  2.800E-02  1.799E-01  1.017E+05  3.360E-10  6.500E-02  2.969E+02  2.969E+02
  2.800E-02  1.862E-01  1.017E+05  2.960E-10  6.500E-02  2.970E+02  2.970E+02
  2.800E-02  1.925E-01  1.017E+05  2.360E-10  6.500E-02  2.971E+02  2.970E+02
  2.800E-02  1.988E-01  1.017E+05  1.728E-10  6.500E-02  2.970E+02  2.970E+02
  2.800E-02  2.052E-01  1.017E+05  1.114E-10  6.500E-02  2.969E+02  2.969E+02
  2.800E-02  2.115E-01  1.017E+05  6.828E-11  6.500E-02  2.967E+02  2.967E+02
  2.800E-02  2.178E-01  1.017E+05  3.368E-11  6.500E-02  2.965E+02  2.965E+02
  2.800E-02  2.241E-01  1.017E+05  1.690E-11  6.500E-02  2.963E+02  2.963E+02
  2.800E-02  2.304E-01  1.016E+05 -5.097E-15  6.500E-02  2.960E+02  2.960E+02
  2.800E-02  2.367E-01  1.016E+05 -4.911E-12  6.501E-02  2.957E+02  2.957E+02
  2.800E-02  2.430E-01  1.016E+05  7.713E-12  6.500E-02  2.954E+02  2.954E+02
  2.800E-02  2.493E-01  1.016E+05  2.452E-11  6.500E-02  2.952E+02  2.952E+02
  2.800E-02  2.557E-01  1.016E+05  4.151E-11  6.500E-02  2.949E+02  2.949E+02
  2.800E-02  2.620E-01  1.016E+05  3.854E-11  6.500E-02  2.947E+02  2.947E+02
  2.800E-02  2.683E-01  1.016E+05  2.305E-11  6.500E-02  2.944E+02  2.945E+02
  2.800E-02  2.746E-01  1.016E+05  1.032E-13  6.500E-02  2.942E+02  2.943E+02
  2.800E-02  2.809E-01  1.016E+05 -8.044E-12  6.500E-02  2.941E+02  2.941E+02
  2.800E-02  2.872E-01  1.016E+05 -1.412E-11  6.500E-02  2.939E+02  2.939E+02
  2.800E-02  2.935E-01  1.016E+05 -1.914E-11  6.501E-02  2.938E+02  2.938E+02
  2.800E-02  2.998E-01  1.016E+05 -1.788E-11  6.500E-02  2.937E+02  2.937E+02
  2.800E-02  3.062E-01  1.016E+05 -1.546E-11  6.500E-02  2.936E+02  2.936E+02
  2.800E-02  3.125E-01  1.015E+05 -5.841E-12  6.500E-02  2.936E+02  2.936E+02
  2.800E-02  3.188E-01  1.015E+05  2.953E-12  6.500E-02  2.935E+02  2.935E+02
  2.800E-02  3.251E-01  1.015E+05  1.464E-11  6.500E-02  2.934E+02  2.935E+02
  2.800E-02  3.314E-01  1.015E+05  1.324E-11  6.500E-02  2.934E+02  2.934E+02
  2.800E-02  3.377E-01  1.015E+05  6.610E-12  6.500E-02  2.934E+02  2.934E+02