VARIABLES="XP","YP","P","U","V","TS","TF"
ZONE T="Zone 001"I=    82 J=    12 F=POINT
  0.000E+00  0.000E+00  1.019E+05  0.000E+00  0.000E+00  2.931E+02  2.931E+02
  0.000E+00  3.156E-03  1.019E+05  0.000E+00  0.000E+00  2.931E+02  2.931E+02
  0.000E+00  9.469E-03  1.019E+05  0.000E+00  0.000E+00  2.932E+02  2.932E+02
  0.000E+00  1.578E-02  1.019E+05  0.000E+00  0.000E+00  2.934E+02  2.933E+02
  0.000E+00  2.209E-02  1.019E+05  0.000E+00  0.000E+00  2.937E+02  2.936E+02
  0.000E+00  2.841E-02  1.019E+05  0.000E+00  0.000E+00  2.942E+02  2.940E+02
  0.000E+00  3.472E-02  1.019E+05  0.000E+00  0.000E+00  2.950E+02  2.946E+02
  0.000E+00  4.103E-02  1.019E+05  0.000E+00  0.000E+00  2.962E+02  2.955E+02
  0.000E+00  4.734E-02  1.019E+05  0.000E+00  0.000E+00  2.980E+02  2.970E+02
  0.000E+00  5.366E-02  1.018E+05  0.000E+00  0.000E+00  3.009E+02  2.994E+02
  0.000E+00  5.997E-02  1.018E+05  0.000E+00  0.000E+00  3.053E+02  3.029E+02
  0.000E+00  6.628E-02  1.018E+05  0.000E+00  0.000E+00  3.118E+02  3.083E+02
  0.000E+00  7.259E-02  1.018E+05  0.000E+00  0.000E+00  3.214E+02  3.162E+02
  0.000E+00  7.891E-02  1.018E+05  0.000E+00  0.000E+00  3.353E+02  3.277E+02
  0.000E+00  8.522E-02  1.018E+05  0.000E+00  0.000E+00  3.555E+02  3.444E+02
  0.000E+00  9.153E-02  1.018E+05  0.000E+00  0.000E+00  3.861E+02  3.696E+02
  0.000E+00  9.784E-02  1.018E+05  0.000E+00  0.000E+00  4.358E+02  4.101E+02
  0.000E+00  1.042E-01  1.018E+05  0.000E+00  0.000E+00  5.242E+02  5.019E+02
  0.000E+00  1.105E-01  1.018E+05  0.000E+00  0.000E+00  5.270E+02  5.167E+02
  0.000E+00  1.168E-01  1.018E+05  0.000E+00  0.000E+00  5.288E+02  5.238E+02
  0.000E+00  1.231E-01  1.018E+05  0.000E+00  0.000E+00  5.243E+02  5.239E+02
  0.000E+00  1.294E-01  1.018E+05  0.000E+00  0.000E+00  5.131E+02  5.174E+02
  0.000E+00  1.357E-01  1.018E+05  0.000E+00  0.000E+00  4.964E+02  5.048E+02
  0.000E+00  1.420E-01  1.017E+05  0.000E+00  0.000E+00  4.759E+02  4.875E+02
  0.000E+00  1.483E-01  1.017E+05  0.000E+00  0.000E+00  4.533E+02  4.671E+02
  0.000E+00  1.547E-01  1.017E+05  0.000E+00  0.000E+00  4.303E+02  4.451E+02
  0.000E+00  1.610E-01  1.017E+05  0.000E+00  0.000E+00  4.081E+02  4.231E+02
  0.000E+00  1.673E-01  1.017E+05  0.000E+00  0.000E+00  3.877E+02  4.020E+02
  0.000E+00  1.736E-01  1.017E+05  0.000E+00  0.000E+00  3.695E+02  3.827E+02
  0.000E+00  1.799E-01  1.017E+05  0.000E+00  0.000E+00  3.538E+02  3.655E+02
  0.000E+00  1.862E-01  1.017E+05  0.000E+00  0.000E+00  3.407E+02  3.507E+02
  0.000E+00  1.925E-01  1.017E+05  0.000E+00  0.000E+00  3.299E+02  3.383E+02
  0.000E+00  1.988E-01  1.017E+05  0.000E+00  0.000E+00  3.212E+02  3.281E+02
  0.000E+00  2.052E-01  1.017E+05  0.000E+00  0.000E+00  3.143E+02  3.199E+02
  0.000E+00  2.115E-01  1.017E+05  0.000E+00  0.000E+00  3.090E+02  3.134E+02
  0.000E+00  2.178E-01  1.017E+05  0.000E+00  0.000E+00  3.049E+02  3.083E+02
  0.000E+00  2.241E-01  1.017E+05  0.000E+00  0.000E+00  3.018E+02  3.044E+02
  0.000E+00  2.304E-01  1.016E+05  0.000E+00  0.000E+00  2.995E+02  3.015E+02
  0.000E+00  2.367E-01  1.016E+05  0.000E+00  0.000E+00  2.977E+02  2.993E+02
  0.000E+00  2.430E-01  1.016E+05  0.000E+00  0.000E+00  2.965E+02  2.976E+02
  0.000E+00  2.493E-01  1.016E+05  0.000E+00  0.000E+00  2.956E+02  2.964E+02
  0.000E+00  2.557E-01  1.016E+05  0.000E+00  0.000E+00  2.949E+02  2.955E+02
  0.000E+00  2.620E-01  1.016E+05  0.000E+00  0.000E+00  2.944E+02  2.948E+02
  0.000E+00  2.683E-01  1.016E+05  0.000E+00  0.000E+00  2.941E+02  2.944E+02
  0.000E+00  2.746E-01  1.016E+05  0.000E+00  0.000E+00  2.938E+02  2.940E+02
  0.000E+00  2.809E-01  1.016E+05  0.000E+00  0.000E+00  2.936E+02  2.938E+02
  0.000E+00  2.872E-01  1.016E+05  0.000E+00  0.000E+00  2.935E+02  2.936E+02
  0.000E+00  2.935E-01  1.016E+05  0.000E+00  0.000E+00  2.934E+02  2.935E+02
  0.000E+00  2.998E-01  1.016E+05  0.000E+00  0.000E+00  2.933E+02  2.934E+02
  0.000E+00  3.062E-01  1.016E+05  0.000E+00  0.000E+00  2.933E+02  2.933E+02
  0.000E+00  3.125E-01  1.015E+05  0.000E+00  0.000E+00  2.932E+02  2.933E+02
  0.000E+00  3.188E-01  1.015E+05  0.000E+00  0.000E+00  2.932E+02  2.932E+02
  0.000E+00  3.251E-01  1.015E+05  0.000E+00  0.000E+00  2.932E+02  2.932E+02
  0.000E+00  3.314E-01  1.015E+05  0.000E+00  0.000E+00  2.931E+02  2.932E+02
  0.000E+00  3.377E-01  1.015E+05  0.000E+00  0.000E+00  2.931E+02  2.931E+02
  0.000E+00  3.440E-01  1.015E+05  0.000E+00  0.000E+00  2.931E+02  2.931E+02
  0.000E+00  3.503E-01  1.015E+05  0.000E+00  0.000E+00  2.931E+02  2.931E+02
  0.000E+00  3.567E-01  1.015E+05  0.000E+00  0.000E+00  2.931E+02  2.931E+02
  0.000E+00  3.630E-01  1.015E+05  0.000E+00  0.000E+00  2.931E+02  2.931E+02
  0.000E+00  3.693E-01  1.015E+05  0.000E+00  0.000E+00  2.931E+02  2.931E+02
  0.000E+00  3.756E-01  1.015E+05  0.000E+00  0.000E+00  2.931E+02  2.931E+02
  0.000E+00  3.819E-01  1.015E+05  0.000E+00  0.000E+00  2.930E+02  2.931E+02
  0.000E+00  3.882E-01  1.015E+05  0.000E+00  0.000E+00  2.930E+02  2.930E+02
  0.000E+00  3.945E-01  1.015E+05  0.000E+00  0.000E+00  2.930E+02  2.930E+02
  0.000E+00  4.008E-01  1.014E+05  0.000E+00  0.000E+00  2.930E+02  2.930E+02
  0.000E+00  4.072E-01  1.014E+05  0.000E+00  0.000E+00  2.930E+02  2.930E+02
  0.000E+00  4.135E-01  1.014E+05  0.000E+00  0.000E+00  2.930E+02  2.930E+02
  0.000E+00  4.198E-01  1.014E+05  0.000E+00  0.000E+00  2.930E+02  2.930E+02
  0.000E+00  4.261E-01  1.014E+05  0.000E+00  0.000E+00  2.930E+02  2.930E+02
  0.000E+00  4.324E-01  1.014E+05  0.000E+00  0.000E+00  2.930E+02  2.930E+02
  0.000E+00  4.387E-01  1.014E+05  0.000E+00  0.000E+00  2.930E+02  2.930E+02
  0.000E+00  4.450E-01  1.014E+05  0.000E+00  0.000E+00  2.930E+02  2.930E+02
  0.000E+00  4.513E-01  1.014E+05  0.000E+00  0.000E+00  2.930E+02  2.930E+02
  0.000E+00  4.577E-01  1.014E+05  0.000E+00  0.000E+00  2.930E+02  2.930E+02
  0.000E+00  4.640E-01  1.014E+05  0.000E+00  0.000E+00  2.930E+02  2.930E+02
  0.000E+00  4.703E-01  1.014E+05  0.000E+00  0.000E+00  2.930E+02  2.930E+02
  0.000E+00  4.766E-01  1.014E+05  0.000E+00  0.000E+00  2.930E+02  2.930E+02
  0.000E+00  4.829E-01  1.014E+05  0.000E+00  0.000E+00  2.930E+02  2.930E+02
  0.000E+00  4.892E-01  1.013E+05  0.000E+00  0.000E+00  2.930E+02  2.930E+02
  0.000E+00  4.955E-01  1.013E+05  0.000E+00  0.000E+00  2.930E+02  2.930E+02
  0.000E+00  5.018E-01  1.013E+05  0.000E+00  0.000E+00  2.930E+02  2.930E+02
  0.000E+00  5.050E-01  1.013E+05  0.000E+00  0.000E+00  2.930E+02  2.930E+02
  1.417E-02  0.000E+00  1.019E+05  8.404E-08  6.500E-02  2.930E+02  2.931E+02
  1.417E-02  3.156E-03  1.019E+05  8.404E-08  6.492E-02  2.931E+02  2.931E+02
  1.417E-02  9.469E-03  1.019E+05  6.384E-08  6.494E-02  2.932E+02  2.932E+02
  1.417E-02  1.578E-02  1.019E+05  5.129E-08  6.496E-02  2.934E+02  2.933E+02
  1.417E-02  2.209E-02  1.019E+05  4.103E-08  6.496E-02  2.937E+02  2.936E+02
  1.417E-02  2.841E-02  1.019E+05  3.306E-08  6.497E-02  2.942E+02  2.940E+02
  1.417E-02  3.472E-02  1.019E+05  2.673E-08  6.497E-02  2.950E+02  2.946E+02
  1.417E-02  4.103E-02  1.019E+05  2.166E-08  6.497E-02  2.962E+02  2.955E+02
  1.417E-02  4.734E-02  1.019E+05  1.755E-08  6.496E-02  2.980E+02  2.970E+02
  1.417E-02  5.366E-02  1.018E+05  1.413E-08  6.496E-02  3.009E+02  2.994E+02
  1.417E-02  5.997E-02  1.018E+05  1.118E-08  6.496E-02  3.053E+02  3.029E+02
  1.417E-02  6.628E-02  1.018E+05  8.602E-09  6.496E-02  3.118E+02  3.083E+02
  1.417E-02  7.259E-02  1.018E+05  6.385E-09  6.494E-02  3.214E+02  3.162E+02
  1.417E-02  7.891E-02  1.018E+05  4.587E-09  6.494E-02  3.353E+02  3.277E+02
  1.417E-02  8.522E-02  1.018E+05  3.343E-09  6.493E-02  3.555E+02  3.444E+02
  1.417E-02  9.153E-02  1.018E+05  2.792E-09  6.491E-02  3.861E+02  3.696E+02
  1.417E-02  9.784E-02  1.018E+05  2.938E-09  6.485E-02  4.358E+02  4.101E+02
  1.417E-02  1.042E-01  1.018E+05  3.691E-09  6.503E-02  5.242E+02  5.019E+02
  1.417E-02  1.105E-01  1.018E+05  4.953E-09  6.493E-02  5.270E+02  5.167E+02
  1.417E-02  1.168E-01  1.018E+05  6.617E-09  6.495E-02  5.288E+02  5.238E+02
  1.417E-02  1.231E-01  1.018E+05  8.585E-09  6.498E-02  5.243E+02  5.239E+02
  1.417E-02  1.294E-01  1.018E+05  1.066E-08  6.499E-02  5.131E+02  5.174E+02
  1.417E-02  1.357E-01  1.018E+05  1.255E-08  6.500E-02  4.964E+02  5.048E+02
  1.417E-02  1.420E-01  1.017E+05  1.388E-08  6.503E-02  4.759E+02  4.875E+02
  1.417E-02  1.483E-01  1.017E+05  1.443E-08  6.503E-02  4.533E+02  4.671E+02
  1.417E-02  1.547E-01  1.017E+05  1.411E-08  6.503E-02  4.303E+02  4.451E+02
  1.417E-02  1.610E-01  1.017E+05  1.291E-08  6.503E-02  4.081E+02  4.231E+02
  1.417E-02  1.673E-01  1.017E+05  1.101E-08  6.503E-02  3.877E+02  4.020E+02
  1.417E-02  1.736E-01  1.017E+05  8.604E-09  6.501E-02  3.695E+02  3.827E+02
  1.417E-02  1.799E-01  1.017E+05  5.927E-09  6.501E-02  3.538E+02  3.655E+02
  1.417E-02  1.862E-01  1.017E+05  3.223E-09  6.502E-02  3.407E+02  3.507E+02
  1.417E-02  1.925E-01  1.017E+05  6.903E-10  6.500E-02  3.299E+02  3.383E+02
  1.417E-02  1.988E-01  1.017E+05 -1.560E-09  6.499E-02  3.212E+02  3.281E+02
  1.417E-02  2.052E-01  1.017E+05 -3.410E-09  6.499E-02  3.143E+02  3.199E+02
  1.417E-02  2.115E-01  1.017E+05 -4.800E-09  6.499E-02  3.090E+02  3.134E+02
  1.417E-02  2.178E-01  1.017E+05 -5.766E-09  6.498E-02  3.049E+02  3.083E+02
  1.417E-02  2.241E-01  1.017E+05 -6.329E-09  6.497E-02  3.018E+02  3.044E+02
  1.417E-02  2.304E-01  1.016E+05 -6.551E-09  6.497E-02  2.995E+02  3.015E+02
  1.417E-02  2.367E-01  1.016E+05 -6.478E-09  6.498E-02  2.977E+02  2.993E+02
  1.417E-02  2.430E-01  1.016E+05 -6.183E-09  6.497E-02  2.965E+02  2.976E+02
  1.417E-02  2.493E-01  1.016E+05 -5.756E-09  6.496E-02  2.956E+02  2.964E+02
  1.417E-02  2.557E-01  1.016E+05 -5.250E-09  6.497E-02  2.949E+02  2.955E+02
  1.417E-02  2.620E-01  1.016E+05 -4.696E-09  6.497E-02  2.944E+02  2.948E+02
  1.417E-02  2.683E-01  1.016E+05 -4.176E-09  6.497E-02  2.941E+02  2.944E+02
  1.417E-02  2.746E-01  1.016E+05 -3.681E-09  6.497E-02  2.938E+02  2.940E+02
  1.417E-02  2.809E-01  1.016E+05 -3.213E-09  6.497E-02  2.936E+02  2.938E+02
  1.417E-02  2.872E-01  1.016E+05 -2.783E-09  6.497E-02  2.935E+02  2.936E+02
  1.417E-02  2.935E-01  1.016E+05 -2.397E-09  6.497E-02  2.934E+02  2.935E+02
  1.417E-02  2.998E-01  1.016E+05 -2.058E-09  6.497E-02  2.933E+02  2.934E+02
  1.417E-02  3.062E-01  1.016E+05 -1.768E-09  6.497E-02  2.933E+02  2.933E+02
  1.417E-02  3.125E-01  1.015E+05 -1.528E-09  6.497E-02  2.932E+02  2.933E+02
  1.417E-02  3.188E-01  1.015E+05 -1.314E-09  6.497E-02  2.932E+02  2.932E+02
  1.417E-02  3.251E-01  1.015E+05 -1.148E-09  6.498E-02  2.932E+02  2.932E+02
  1.417E-02  3.314E-01  1.015E+05 -1.027E-09  6.497E-02  2.931E+02  2.932E+02
  1.417E-02  3.377E-01  1.015E+05 -9.216E-10  6.497E-02  2.931E+02  2.931E+02
  1.417E-02  3.440E-01  1.015E+05 -8.559E-10  6.497E-02  2.931E+02  2.931E+02
  1.417E-02  3.503E-01  1.015E+05 -8.055E-10  6.497E-02  2.931E+02  2.931E+02
  1.417E-02  3.567E-01  1.015E+05 -7.434E-10  6.497E-02  2.931E+02  2.931E+02
  1.417E-02  3.630E-01  1.015E+05 -6.929E-10  6.497E-02  2.931E+02  2.931E+02
  1.417E-02  3.693E-01  1.015E+05 -6.410E-10  6.498E-02  2.931E+02  2.931E+02
  1.417E-02  3.756E-01  1.015E+05 -6.054E-10  6.497E-02  2.931E+02  2.931E+02
  1.417E-02  3.819E-01  1.015E+05 -5.841E-10  6.497E-02  2.930E+02  2.931E+02
  1.417E-02  3.882E-01  1.015E+05 -5.546E-10  6.497E-02  2.930E+02  2.930E+02
  1.417E-02  3.945E-01  1.015E+05 -5.176E-10  6.497E-02  2.930E+02  2.930E+02
  1.417E-02  4.008E-01  1.014E+05 -4.933E-10  6.497E-02  2.930E+02  2.930E+02
  1.417E-02  4.072E-01  1.014E+05 -4.875E-10  6.497E-02  2.930E+02  2.930E+02
  1.417E-02  4.135E-01  1.014E+05 -4.587E-10  6.497E-02  2.930E+02  2.930E+02
  1.417E-02  4.198E-01  1.014E+05 -4.130E-10  6.497E-02  2.930E+02  2.930E+02
  1.417E-02  4.261E-01  1.014E+05 -3.704E-10  6.497E-02  2.930E+02  2.930E+02
  1.417E-02  4.324E-01  1.014E+05 -3.284E-10  6.497E-02  2.930E+02  2.930E+02
  1.417E-02  4.387E-01  1.014E+05 -2.817E-10  6.497E-02  2.930E+02  2.930E+02
  1.417E-02  4.450E-01  1.014E+05 -2.579E-10  6.497E-02  2.930E+02  2.930E+02
  1.417E-02  4.513E-01  1.014E+05 -2.306E-10  6.498E-02  2.930E+02  2.930E+02
  1.417E-02  4.577E-01  1.014E+05 -1.987E-10  6.497E-02  2.930E+02  2.930E+02
  1.417E-02  4.640E-01  1.014E+05 -1.881E-10  6.497E-02  2.930E+02  2.930E+02
  1.417E-02  4.703E-01  1.014E+05 -1.723E-10  6.497E-02  2.930E+02  2.930E+02
  1.417E-02  4.766E-01  1.014E+05 -1.564E-10  6.497E-02  2.930E+02  2.930E+02
  1.417E-02  4.829E-01  1.014E+05 -1.414E-10  6.496E-02  2.930E+02  2.930E+02
  1.417E-02  4.892E-01  1.013E+05 -1.022E-10  6.497E-02  2.930E+02  2.930E+02
  1.417E-02  4.955E-01  1.013E+05 -5.928E-11  6.499E-02  2.930E+02  2.930E+02
  1.417E-02  5.018E-01  1.013E+05 -4.891E-11  6.500E-02  2.930E+02  2.930E+02
  1.417E-02  5.050E-01  1.013E+05 -4.891E-11  6.500E-02  2.930E+02  2.930E+02
  4.252E-02  0.000E+00  1.019E+05  1.078E-07  6.500E-02  2.930E+02  2.931E+02
  4.252E-02  3.156E-03  1.019E+05  1.078E-07  6.492E-02  2.931E+02  2.931E+02
  4.252E-02  9.469E-03  1.019E+05  8.665E-08  6.494E-02  2.932E+02  2.932E+02
  4.252E-02  1.578E-02  1.019E+05  7.266E-08  6.496E-02  2.934E+02  2.933E+02
  4.252E-02  2.209E-02  1.019E+05  6.072E-08  6.496E-02  2.937E+02  2.936E+02
  4.252E-02  2.841E-02  1.019E+05  5.102E-08  6.497E-02  2.942E+02  2.940E+02
  4.252E-02  3.472E-02  1.019E+05  4.296E-08  6.497E-02  2.950E+02  2.946E+02
  4.252E-02  4.103E-02  1.019E+05  3.628E-08  6.497E-02  2.962E+02  2.955E+02
  4.252E-02  4.734E-02  1.019E+05  3.074E-08  6.496E-02  2.980E+02  2.971E+02
  4.252E-02  5.366E-02  1.018E+05  2.615E-08  6.496E-02  3.009E+02  2.994E+02
  4.252E-02  5.997E-02  1.018E+05  2.239E-08  6.496E-02  3.053E+02  3.029E+02
  4.252E-02  6.628E-02  1.018E+05  1.928E-08  6.496E-02  3.118E+02  3.083E+02
  4.252E-02  7.259E-02  1.018E+05  1.667E-08  6.494E-02  3.214E+02  3.162E+02
  4.252E-02  7.891E-02  1.018E+05  1.450E-08  6.494E-02  3.353E+02  3.277E+02
  4.252E-02  8.522E-02  1.018E+05  1.285E-08  6.493E-02  3.555E+02  3.444E+02
  4.252E-02  9.153E-02  1.018E+05  1.193E-08  6.491E-02  3.861E+02  3.696E+02
  4.252E-02  9.784E-02  1.018E+05  1.189E-08  6.485E-02  4.358E+02  4.101E+02
  4.252E-02  1.042E-01  1.018E+05  1.274E-08  6.503E-02  5.242E+02  5.019E+02
  4.252E-02  1.105E-01  1.018E+05  1.434E-08  6.493E-02  5.269E+02  5.167E+02
  4.252E-02  1.168E-01  1.018E+05  1.651E-08  6.495E-02  5.288E+02  5.238E+02
  4.252E-02  1.231E-01  1.018E+05  1.906E-08  6.498E-02  5.243E+02  5.239E+02
  4.252E-02  1.294E-01  1.018E+05  2.154E-08  6.499E-02  5.131E+02  5.173E+02
  4.252E-02  1.357E-01  1.018E+05  2.344E-08  6.500E-02  4.964E+02  5.047E+02
  4.252E-02  1.420E-01  1.017E+05  2.423E-08  6.503E-02  4.759E+02  4.875E+02
  4.252E-02  1.483E-01  1.017E+05  2.364E-08  6.503E-02  4.533E+02  4.671E+02
  4.252E-02  1.547E-01  1.017E+05  2.165E-08  6.503E-02  4.303E+02  4.451E+02
  4.252E-02  1.610E-01  1.017E+05  1.845E-08  6.503E-02  4.081E+02  4.231E+02
  4.252E-02  1.673E-01  1.017E+05  1.435E-08  6.503E-02  3.877E+02  4.020E+02
  4.252E-02  1.736E-01  1.017E+05  9.744E-09  6.501E-02  3.695E+02  3.827E+02
  4.252E-02  1.799E-01  1.017E+05  5.052E-09  6.501E-02  3.538E+02  3.655E+02
  4.252E-02  1.862E-01  1.017E+05  6.320E-10  6.502E-02  3.407E+02  3.508E+02
  4.252E-02  1.925E-01  1.017E+05 -3.257E-09  6.500E-02  3.299E+02  3.384E+02
  4.252E-02  1.988E-01  1.017E+05 -6.428E-09  6.499E-02  3.212E+02  3.282E+02
  4.252E-02  2.052E-01  1.017E+05 -8.821E-09  6.499E-02  3.143E+02  3.199E+02
  4.252E-02  2.115E-01  1.017E+05 -1.042E-08  6.499E-02  3.090E+02  3.134E+02
  4.252E-02  2.178E-01  1.017E+05 -1.131E-08  6.498E-02  3.049E+02  3.084E+02
  4.252E-02  2.241E-01  1.017E+05 -1.158E-08  6.497E-02  3.018E+02  3.045E+02
  4.252E-02  2.304E-01  1.016E+05 -1.135E-08  6.497E-02  2.995E+02  3.015E+02
  4.252E-02  2.367E-01  1.016E+05 -1.075E-08  6.498E-02  2.978E+02  2.993E+02
  4.252E-02  2.430E-01  1.016E+05 -9.949E-09  6.497E-02  2.965E+02  2.976E+02
  4.252E-02  2.493E-01  1.016E+05 -8.934E-09  6.496E-02  2.956E+02  2.964E+02
  4.252E-02  2.557E-01  1.016E+05 -8.187E-09  6.497E-02  2.949E+02  2.955E+02
  4.252E-02  2.620E-01  1.016E+05 -6.738E-09  6.497E-02  2.944E+02  2.949E+02
  4.252E-02  2.683E-01  1.016E+05 -5.671E-09  6.497E-02  2.941E+02  2.944E+02
  4.252E-02  2.746E-01  1.016E+05 -4.652E-09  6.497E-02  2.938E+02  2.940E+02
  4.252E-02  2.809E-01  1.016E+05 -3.782E-09  6.497E-02  2.936E+02  2.938E+02
  4.252E-02  2.872E-01  1.016E+05 -3.051E-09  6.497E-02  2.935E+02  2.936E+02
  4.252E-02  2.935E-01  1.016E+05 -2.422E-09  6.497E-02  2.934E+02  2.935E+02
  4.252E-02  2.998E-01  1.016E+05 -1.900E-09  6.497E-02  2.933E+02  2.934E+02
  4.252E-02  3.062E-01  1.016E+05 -1.494E-09  6.497E-02  2.933E+02  2.933E+02
  4.252E-02  3.125E-01  1.015E+05 -1.164E-09  6.497E-02  2.932E+02  2.933E+02
  4.252E-02  3.188E-01  1.015E+05 -8.840E-10  6.497E-02  2.932E+02  2.932E+02
  4.252E-02  3.251E-01  1.015E+05 -7.046E-10  6.498E-02  2.932E+02  2.932E+02
  4.252E-02  3.314E-01  1.015E+05 -5.992E-10  6.497E-02  2.931E+02  2.932E+02
  4.252E-02  3.377E-01  1.015E+05 -5.234E-10  6.497E-02  2.931E+02  2.931E+02
  4.252E-02  3.440E-01  1.015E+05 -4.893E-10  6.497E-02  2.931E+02  2.931E+02
  4.252E-02  3.503E-01  1.015E+05 -4.781E-10  6.497E-02  2.931E+02  2.931E+02
  4.252E-02  3.567E-01  1.015E+05 -4.965E-10  6.497E-02  2.931E+02  2.931E+02
  4.252E-02  3.630E-01  1.015E+05 -5.218E-10  6.497E-02  2.931E+02  2.931E+02
  4.252E-02  3.693E-01  1.015E+05 -5.489E-10  6.498E-02  2.931E+02  2.931E+02
  4.252E-02  3.756E-01  1.015E+05 -5.970E-10  6.497E-02  2.931E+02  2.931E+02
  4.252E-02  3.819E-01  1.015E+05 -6.416E-10  6.497E-02  2.931E+02  2.931E+02
  4.252E-02  3.882E-01  1.015E+05 -6.756E-10  6.497E-02  2.930E+02  2.930E+02
  4.252E-02  3.945E-01  1.015E+05 -6.827E-10  6.497E-02  2.930E+02  2.930E+02
  4.252E-02  4.008E-01  1.014E+05 -7.017E-10  6.497E-02  2.930E+02  2.930E+02
  4.252E-02  4.072E-01  1.014E+05 -7.014E-10  6.497E-02  2.930E+02  2.930E+02
  4.252E-02  4.135E-01  1.014E+05 -6.756E-10  6.497E-02  2.930E+02  2.930E+02
  4.252E-02  4.198E-01  1.014E+05 -6.370E-10  6.497E-02  2.930E+02  2.930E+02
  4.252E-02  4.261E-01  1.014E+05 -5.974E-10  6.497E-02  2.930E+02  2.930E+02
  4.252E-02  4.324E-01  1.014E+05 -5.489E-10  6.497E-02  2.930E+02  2.930E+02
  4.252E-02  4.387E-01  1.014E+05 -5.012E-10  6.497E-02  2.930E+02  2.930E+02
  4.252E-02  4.450E-01  1.014E+05 -4.661E-10  6.497E-02  2.930E+02  2.930E+02
  4.252E-02  4.513E-01  1.014E+05 -4.251E-10  6.498E-02  2.930E+02  2.930E+02
  4.252E-02  4.577E-01  1.014E+05 -3.843E-10  6.497E-02  2.930E+02  2.930E+02
  4.252E-02  4.640E-01  1.014E+05 -3.506E-10  6.497E-02  2.930E+02  2.930E+02
  4.252E-02  4.703E-01  1.014E+05 -3.132E-10  6.497E-02  2.930E+02  2.930E+02
  4.252E-02  4.766E-01  1.014E+05 -2.659E-10  6.497E-02  2.930E+02  2.930E+02
  4.252E-02  4.829E-01  1.014E+05 -2.314E-10  6.497E-02  2.930E+02  2.930E+02
  4.252E-02  4.892E-01  1.013E+05 -1.708E-10  6.497E-02  2.930E+02  2.930E+02
  4.252E-02  4.955E-01  1.013E+05 -1.049E-10  6.499E-02  2.930E+02  2.930E+02
  4.252E-02  5.018E-01  1.013E+05 -9.303E-11  6.500E-02  2.930E+02  2.930E+02
  4.252E-02  5.050E-01  1.013E+05 -9.303E-11  6.500E-02  2.930E+02  2.930E+02
  7.087E-02  0.000E+00  1.019E+05  3.884E-08  6.500E-02  2.930E+02  2.931E+02
  7.087E-02  3.156E-03  1.019E+05  3.884E-08  6.492E-02  2.931E+02  2.931E+02
  7.087E-02  9.469E-03  1.019E+05  3.757E-08  6.494E-02  2.932E+02  2.932E+02
  7.087E-02  1.578E-02  1.019E+05  3.565E-08  6.496E-02  2.934E+02  2.933E+02
  7.087E-02  2.209E-02  1.019E+05  3.314E-08  6.496E-02  2.937E+02  2.936E+02
  7.087E-02  2.841E-02  1.019E+05  3.039E-08  6.497E-02  2.942E+02  2.940E+02
  7.087E-02  3.472E-02  1.019E+05  2.764E-08  6.497E-02  2.950E+02  2.946E+02
  7.087E-02  4.103E-02  1.019E+05  2.486E-08  6.497E-02  2.962E+02  2.955E+02
  7.087E-02  4.734E-02  1.019E+05  2.217E-08  6.496E-02  2.980E+02  2.970E+02
  7.087E-02  5.366E-02  1.018E+05  1.966E-08  6.496E-02  3.009E+02  2.994E+02
  7.087E-02  5.997E-02  1.018E+05  1.743E-08  6.496E-02  3.053E+02  3.029E+02
  7.087E-02  6.628E-02  1.018E+05  1.552E-08  6.496E-02  3.118E+02  3.083E+02
  7.087E-02  7.259E-02  1.018E+05  1.398E-08  6.494E-02  3.214E+02  3.162E+02
  7.087E-02  7.891E-02  1.018E+05  1.286E-08  6.494E-02  3.353E+02  3.277E+02
  7.087E-02  8.522E-02  1.018E+05  1.217E-08  6.493E-02  3.555E+02  3.444E+02
  7.087E-02  9.153E-02  1.018E+05  1.179E-08  6.491E-02  3.861E+02  3.696E+02
  7.087E-02  9.784E-02  1.018E+05  1.161E-08  6.485E-02  4.358E+02  4.101E+02
  7.087E-02  1.042E-01  1.018E+05  1.144E-08  6.503E-02  5.242E+02  5.019E+02
  7.087E-02  1.105E-01  1.018E+05  1.116E-08  6.493E-02  5.269E+02  5.167E+02
  7.087E-02  1.168E-01  1.018E+05  1.072E-08  6.495E-02  5.288E+02  5.238E+02
  7.087E-02  1.231E-01  1.018E+05  1.006E-08  6.498E-02  5.243E+02  5.239E+02
  7.087E-02  1.294E-01  1.018E+05  9.078E-09  6.499E-02  5.131E+02  5.173E+02
  7.087E-02  1.357E-01  1.018E+05  7.720E-09  6.500E-02  4.964E+02  5.047E+02
  7.087E-02  1.420E-01  1.017E+05  6.029E-09  6.503E-02  4.759E+02  4.875E+02
  7.087E-02  1.483E-01  1.017E+05  4.115E-09  6.503E-02  4.533E+02  4.671E+02
  7.087E-02  1.547E-01  1.017E+05  2.235E-09  6.503E-02  4.303E+02  4.452E+02
  7.087E-02  1.610E-01  1.017E+05  6.009E-10  6.503E-02  4.082E+02  4.231E+02
  7.087E-02  1.673E-01  1.017E+05 -7.260E-10  6.503E-02  3.877E+02  4.020E+02
  7.087E-02  1.736E-01  1.017E+05 -1.662E-09  6.501E-02  3.695E+02  3.827E+02
  7.087E-02  1.799E-01  1.017E+05 -2.166E-09  6.501E-02  3.539E+02  3.656E+02
  7.087E-02  1.862E-01  1.017E+05 -2.210E-09  6.502E-02  3.407E+02  3.508E+02
  7.087E-02  1.925E-01  1.017E+05 -1.771E-09  6.500E-02  3.299E+02  3.384E+02
  7.087E-02  1.988E-01  1.017E+05 -8.001E-10  6.499E-02  3.212E+02  3.282E+02
  7.087E-02  2.052E-01  1.017E+05  6.842E-10  6.499E-02  3.143E+02  3.200E+02
  7.087E-02  2.115E-01  1.017E+05  2.667E-09  6.499E-02  3.090E+02  3.134E+02
  7.087E-02  2.178E-01  1.017E+05  5.152E-09  6.498E-02  3.049E+02  3.084E+02
  7.087E-02  2.241E-01  1.017E+05  8.102E-09  6.497E-02  3.018E+02  3.045E+02
  7.087E-02  2.304E-01  1.016E+05  1.145E-08  6.497E-02  2.995E+02  3.015E+02
  7.087E-02  2.367E-01  1.016E+05  1.513E-08  6.498E-02  2.978E+02  2.993E+02
  7.087E-02  2.430E-01  1.016E+05  1.874E-08  6.497E-02  2.965E+02  2.976E+02
  7.087E-02  2.493E-01  1.016E+05  2.227E-08  6.496E-02  2.956E+02  2.964E+02
  7.087E-02  2.557E-01  1.016E+05  2.368E-08  6.497E-02  2.949E+02  2.955E+02
  7.087E-02  2.620E-01  1.016E+05  2.320E-08  6.497E-02  2.944E+02  2.949E+02
  7.087E-02  2.683E-01  1.016E+05  2.063E-08  6.497E-02  2.941E+02  2.944E+02
  7.087E-02  2.746E-01  1.016E+05  1.794E-08  6.497E-02  2.938E+02  2.940E+02
  7.087E-02  2.809E-01  1.016E+05  1.520E-08  6.497E-02  2.936E+02  2.938E+02
  7.087E-02  2.872E-01  1.016E+05  1.271E-08  6.497E-02  2.935E+02  2.936E+02
  7.087E-02  2.935E-01  1.016E+05  1.056E-08  6.497E-02  2.934E+02  2.935E+02
  7.087E-02  2.998E-01  1.016E+05  8.748E-09  6.497E-02  2.933E+02  2.934E+02
  7.087E-02  3.062E-01  1.016E+05  7.246E-09  6.497E-02  2.933E+02  2.933E+02
  7.087E-02  3.125E-01  1.015E+05  6.025E-09  6.497E-02  2.932E+02  2.933E+02
  7.087E-02  3.188E-01  1.015E+05  5.031E-09  6.497E-02  2.932E+02  2.932E+02
  7.087E-02  3.251E-01  1.015E+05  4.216E-09  6.498E-02  2.932E+02  2.932E+02
  7.087E-02  3.314E-01  1.015E+05  3.529E-09  6.497E-02  2.931E+02  2.932E+02
  7.087E-02  3.377E-01  1.015E+05  2.952E-09  6.497E-02  2.931E+02  2.931E+02
  7.087E-02  3.440E-01  1.015E+05  2.462E-09  6.497E-02  2.931E+02  2.931E+02
  7.087E-02  3.503E-01  1.015E+05  2.053E-09  6.497E-02  2.931E+02  2.931E+02
  7.087E-02  3.567E-01  1.015E+05  1.679E-09  6.497E-02  2.931E+02  2.931E+02
  7.087E-02  3.630E-01  1.015E+05  1.333E-09  6.497E-02  2.931E+02  2.931E+02
  7.087E-02  3.693E-01  1.015E+05  1.003E-09  6.498E-02  2.931E+02  2.931E+02
  7.087E-02  3.756E-01  1.015E+05  7.220E-10  6.497E-02  2.931E+02  2.931E+02
  7.087E-02  3.819E-01  1.015E+05  5.069E-10  6.497E-02  2.931E+02  2.931E+02
  7.087E-02  3.882E-01  1.015E+05  2.932E-10  6.497E-02  2.930E+02  2.930E+02
  7.087E-02  3.945E-01  1.015E+05  1.207E-10  6.497E-02  2.930E+02  2.930E+02
  7.087E-02  4.008E-01  1.014E+05 -4.626E-12  6.497E-02  2.930E+02  2.930E+02
  7.087E-02  4.072E-01  1.014E+05 -9.909E-11  6.497E-02  2.930E+02  2.930E+02
  7.087E-02  4.135E-01  1.014E+05 -1.750E-10  6.497E-02  2.930E+02  2.930E+02
  7.087E-02  4.198E-01  1.014E+05 -2.218E-10  6.497E-02  2.930E+02  2.930E+02
  7.087E-02  4.261E-01  1.014E+05 -2.542E-10  6.497E-02  2.930E+02  2.930E+02
  7.087E-02  4.324E-01  1.014E+05 -2.911E-10  6.497E-02  2.930E+02  2.930E+02
  7.087E-02  4.387E-01  1.014E+05 -3.297E-10  6.497E-02  2.930E+02  2.930E+02
  7.087E-02  4.450E-01  1.014E+05 -3.317E-10  6.497E-02  2.930E+02  2.930E+02
  7.087E-02  4.513E-01  1.014E+05 -3.273E-10  6.498E-02  2.930E+02  2.930E+02
  7.087E-02  4.577E-01  1.014E+05 -3.212E-10  6.497E-02  2.930E+02  2.930E+02
  7.087E-02  4.640E-01  1.014E+05 -2.969E-10  6.497E-02  2.930E+02  2.930E+02
  7.087E-02  4.703E-01  1.014E+05 -2.692E-10  6.497E-02  2.930E+02  2.930E+02
  7.087E-02  4.766E-01  1.014E+05 -2.294E-10  6.497E-02  2.930E+02  2.930E+02
  7.087E-02  4.829E-01  1.014E+05 -2.027E-10  6.497E-02  2.930E+02  2.930E+02
  7.087E-02  4.892E-01  1.013E+05 -1.812E-10  6.497E-02  2.930E+02  2.930E+02
  7.087E-02  4.955E-01  1.013E+05 -1.330E-10  6.499E-02  2.930E+02  2.930E+02
  7.087E-02  5.018E-01  1.013E+05 -1.028E-10  6.500E-02  2.930E+02  2.930E+02
  7.087E-02  5.050E-01  1.013E+05 -1.028E-10  6.500E-02  2.930E+02  2.930E+02
  9.922E-02  0.000E+00  1.019E+05  1.958E-08  6.500E-02  2.930E+02  2.931E+02
  9.922E-02  3.156E-03  1.019E+05  1.958E-08  6.492E-02  2.931E+02  2.931E+02
  9.922E-02  9.469E-03  1.019E+05  2.205E-08  6.494E-02  2.932E+02  2.932E+02
  9.922E-02  1.578E-02  1.019E+05  2.338E-08  6.496E-02  2.934E+02  2.933E+02
  9.922E-02  2.209E-02  1.019E+05  2.093E-08  6.496E-02  2.937E+02  2.936E+02
  9.922E-02  2.841E-02  1.019E+05  1.857E-08  6.497E-02  2.942E+02  2.940E+02
  9.922E-02  3.472E-02  1.019E+05  1.780E-08  6.497E-02  2.950E+02  2.946E+02
  9.922E-02  4.103E-02  1.019E+05  1.689E-08  6.497E-02  2.962E+02  2.955E+02
  9.922E-02  4.734E-02  1.019E+05  1.546E-08  6.496E-02  2.980E+02  2.971E+02
  9.922E-02  5.366E-02  1.018E+05  1.378E-08  6.496E-02  3.009E+02  2.994E+02
  9.922E-02  5.997E-02  1.018E+05  1.175E-08  6.496E-02  3.053E+02  3.030E+02
  9.922E-02  6.628E-02  1.018E+05  9.431E-09  6.496E-02  3.118E+02  3.083E+02
  9.922E-02  7.259E-02  1.018E+05  7.032E-09  6.494E-02  3.214E+02  3.162E+02
  9.922E-02  7.891E-02  1.018E+05  4.850E-09  6.494E-02  3.353E+02  3.277E+02
  9.922E-02  8.522E-02  1.018E+05  3.104E-09  6.493E-02  3.555E+02  3.444E+02
  9.922E-02  9.153E-02  1.018E+05  1.824E-09  6.491E-02  3.861E+02  3.696E+02
  9.922E-02  9.784E-02  1.018E+05  8.608E-10  6.485E-02  4.358E+02  4.101E+02
  9.922E-02  1.042E-01  1.018E+05 -9.312E-11  6.503E-02  5.242E+02  5.019E+02
  9.922E-02  1.105E-01  1.018E+05 -1.317E-09  6.493E-02  5.269E+02  5.167E+02
  9.922E-02  1.168E-01  1.018E+05 -3.015E-09  6.495E-02  5.288E+02  5.238E+02
  9.922E-02  1.231E-01  1.018E+05 -5.265E-09  6.498E-02  5.243E+02  5.239E+02
  9.922E-02  1.294E-01  1.018E+05 -7.928E-09  6.499E-02  5.131E+02  5.173E+02
  9.922E-02  1.357E-01  1.018E+05 -1.060E-08  6.500E-02  4.964E+02  5.048E+02
  9.922E-02  1.420E-01  1.017E+05 -1.276E-08  6.503E-02  4.759E+02  4.875E+02
  9.922E-02  1.483E-01  1.017E+05 -1.402E-08  6.503E-02  4.533E+02  4.671E+02
  9.922E-02  1.547E-01  1.017E+05 -1.417E-08  6.503E-02  4.303E+02  4.452E+02
  9.922E-02  1.610E-01  1.017E+05 -1.325E-08  6.503E-02  4.081E+02  4.231E+02
  9.922E-02  1.673E-01  1.017E+05 -1.144E-08  6.503E-02  3.877E+02  4.020E+02
  9.922E-02  1.736E-01  1.017E+05 -8.983E-09  6.501E-02  3.695E+02  3.827E+02
  9.922E-02  1.799E-01  1.017E+05 -6.091E-09  6.501E-02  3.539E+02  3.655E+02
  9.922E-02  1.862E-01  1.017E+05 -2.885E-09  6.502E-02  3.407E+02  3.508E+02
  9.922E-02  1.925E-01  1.017E+05  4.751E-10  6.500E-02  3.299E+02  3.384E+02
  9.922E-02  1.988E-01  1.017E+05  3.973E-09  6.499E-02  3.212E+02  3.282E+02
  9.922E-02  2.052E-01  1.017E+05  7.685E-09  6.499E-02  3.143E+02  3.199E+02
  9.922E-02  2.115E-01  1.017E+05  1.175E-08  6.499E-02  3.090E+02  3.134E+02
  9.922E-02  2.178E-01  1.017E+05  1.640E-08  6.498E-02  3.049E+02  3.084E+02
  9.922E-02  2.241E-01  1.017E+05  2.205E-08  6.497E-02  3.018E+02  3.045E+02
  9.922E-02  2.304E-01  1.016E+05  2.920E-08  6.497E-02  2.995E+02  3.015E+02
  9.922E-02  2.367E-01  1.016E+05  3.966E-08  6.498E-02  2.978E+02  2.993E+02
  9.922E-02  2.430E-01  1.016E+05  5.081E-08  6.497E-02  2.965E+02  2.976E+02
  9.922E-02  2.493E-01  1.016E+05  8.039E-08  6.496E-02  2.956E+02  2.964E+02
  9.922E-02  2.557E-01  1.016E+05  8.367E-08  6.497E-02  2.949E+02  2.955E+02
  9.922E-02  2.620E-01  1.016E+05  7.996E-08  6.497E-02  2.944E+02  2.949E+02
  9.922E-02  2.683E-01  1.016E+05  4.998E-08  6.497E-02  2.941E+02  2.944E+02
  9.922E-02  2.746E-01  1.016E+05  3.853E-08  6.497E-02  2.938E+02  2.940E+02
  9.922E-02  2.809E-01  1.016E+05  2.812E-08  6.497E-02  2.936E+02  2.938E+02
  9.922E-02  2.872E-01  1.016E+05  2.129E-08  6.497E-02  2.935E+02  2.936E+02
  9.922E-02  2.935E-01  1.016E+05  1.625E-08  6.497E-02  2.934E+02  2.935E+02
  9.922E-02  2.998E-01  1.016E+05  1.262E-08  6.497E-02  2.933E+02  2.934E+02
  9.922E-02  3.062E-01  1.016E+05  9.938E-09  6.497E-02  2.933E+02  2.933E+02
  9.922E-02  3.125E-01  1.015E+05  7.906E-09  6.497E-02  2.932E+02  2.933E+02
  9.922E-02  3.188E-01  1.015E+05  6.364E-09  6.497E-02  2.932E+02  2.932E+02
  9.922E-02  3.251E-01  1.015E+05  5.194E-09  6.498E-02  2.932E+02  2.932E+02
  9.922E-02  3.314E-01  1.015E+05  4.269E-09  6.497E-02  2.931E+02  2.932E+02
  9.922E-02  3.377E-01  1.015E+05  3.525E-09  6.497E-02  2.931E+02  2.931E+02