VARIABLES="XP","YP","P","U","V","TS","TF"
ZONE T="Zone 001"I=    82 J=    12 F=POINT
  0.000E+00  0.000E+00  1.013E+05  0.000E+00  0.000E+00  2.932E+02  2.933E+02
  0.000E+00  3.156E-03  1.013E+05  0.000E+00  0.000E+00  2.932E+02  2.933E+02
  0.000E+00  9.469E-03  1.013E+05  0.000E+00  0.000E+00  2.935E+02  2.935E+02
  0.000E+00  1.578E-02  1.013E+05  0.000E+00  0.000E+00  2.938E+02  2.938E+02
  0.000E+00  2.209E-02  1.013E+05  0.000E+00  0.000E+00  2.940E+02  2.939E+02
  0.000E+00  2.841E-02  1.013E+05  0.000E+00  0.000E+00  2.941E+02  2.941E+02
  0.000E+00  3.472E-02  1.013E+05  0.000E+00  0.000E+00  2.942E+02  2.942E+02
  0.000E+00  4.103E-02  1.013E+05  0.000E+00  0.000E+00  2.943E+02  2.944E+02
  0.000E+00  4.734E-02  1.013E+05  0.000E+00  0.000E+00  2.945E+02  2.947E+02
  0.000E+00  5.366E-02  1.013E+05  0.000E+00  0.000E+00  2.949E+02  2.952E+02
  0.000E+00  5.997E-02  1.013E+05  0.000E+00  0.000E+00  2.957E+02  2.964E+02
  0.000E+00  6.628E-02  1.013E+05  0.000E+00  0.000E+00  2.974E+02  2.987E+02
  0.000E+00  7.259E-02  1.013E+05  0.000E+00  0.000E+00  3.013E+02  3.037E+02
  0.000E+00  7.891E-02  1.013E+05  0.000E+00  0.000E+00  3.095E+02  3.139E+02
  0.000E+00  8.522E-02  1.013E+05  0.000E+00  0.000E+00  3.262E+02  3.342E+02
  0.000E+00  9.153E-02  1.013E+05  0.000E+00  0.000E+00  3.574E+02  3.717E+02
  0.000E+00  9.784E-02  1.013E+05  0.000E+00  0.000E+00  4.098E+02  4.436E+02
  0.000E+00  1.042E-01  1.013E+05  0.000E+00  0.000E+00  4.832E+02  6.328E+02
  0.000E+00  1.105E-01  1.013E+05  0.000E+00  0.000E+00  4.074E+02  4.420E+02
  0.000E+00  1.168E-01  1.013E+05  0.000E+00  0.000E+00  3.546E+02  3.696E+02
  0.000E+00  1.231E-01  1.013E+05  0.000E+00  0.000E+00  3.242E+02  3.321E+02
  0.000E+00  1.294E-01  1.013E+05  0.000E+00  0.000E+00  3.083E+02  3.127E+02
  0.000E+00  1.357E-01  1.013E+05  0.000E+00  0.000E+00  3.007E+02  3.030E+02
  0.000E+00  1.420E-01  1.013E+05  0.000E+00  0.000E+00  2.971E+02  2.983E+02
  0.000E+00  1.483E-01  1.013E+05  0.000E+00  0.000E+00  2.955E+02  2.961E+02
  0.000E+00  1.547E-01  1.013E+05  0.000E+00  0.000E+00  2.947E+02  2.950E+02
  0.000E+00  1.610E-01  1.013E+05  0.000E+00  0.000E+00  2.943E+02  2.945E+02
  0.000E+00  1.673E-01  1.013E+05  0.000E+00  0.000E+00  2.941E+02  2.942E+02
  0.000E+00  1.736E-01  1.013E+05  0.000E+00  0.000E+00  2.940E+02  2.940E+02
  0.000E+00  1.799E-01  1.013E+05  0.000E+00  0.000E+00  2.939E+02  2.939E+02
  0.000E+00  1.862E-01  1.013E+05  0.000E+00  0.000E+00  2.938E+02  2.938E+02
  0.000E+00  1.925E-01  1.013E+05  0.000E+00  0.000E+00  2.937E+02  2.937E+02
  0.000E+00  1.988E-01  1.013E+05  0.000E+00  0.000E+00  2.936E+02  2.936E+02
  0.000E+00  2.052E-01  1.013E+05  0.000E+00  0.000E+00  2.936E+02  2.936E+02
  0.000E+00  2.115E-01  1.013E+05  0.000E+00  0.000E+00  2.935E+02  2.935E+02
  0.000E+00  2.178E-01  1.013E+05  0.000E+00  0.000E+00  2.935E+02  2.935E+02
  0.000E+00  2.241E-01  1.013E+05  0.000E+00  0.000E+00  2.934E+02  2.934E+02
  0.000E+00  2.304E-01  1.013E+05  0.000E+00  0.000E+00  2.934E+02  2.934E+02
  0.000E+00  2.367E-01  1.013E+05  0.000E+00  0.000E+00  2.933E+02  2.933E+02
  0.000E+00  2.430E-01  1.013E+05  0.000E+00  0.000E+00  2.933E+02  2.933E+02
  0.000E+00  2.493E-01  1.013E+05  0.000E+00  0.000E+00  2.933E+02  2.933E+02
  0.000E+00  2.557E-01  1.013E+05  0.000E+00  0.000E+00  2.932E+02  2.932E+02
  0.000E+00  2.620E-01  1.013E+05  0.000E+00  0.000E+00  2.932E+02  2.932E+02
  0.000E+00  2.683E-01  1.013E+05  0.000E+00  0.000E+00  2.932E+02  2.932E+02
  0.000E+00  2.746E-01  1.013E+05  0.000E+00  0.000E+00  2.932E+02  2.932E+02
  0.000E+00  2.809E-01  1.013E+05  0.000E+00  0.000E+00  2.931E+02  2.931E+02
  0.000E+00  2.872E-01  1.013E+05  0.000E+00  0.000E+00  2.931E+02  2.931E+02
  0.000E+00  2.935E-01  1.013E+05  0.000E+00  0.000E+00  2.931E+02  2.931E+02
  0.000E+00  2.998E-01  1.013E+05  0.000E+00  0.000E+00  2.931E+02  2.931E+02
  0.000E+00  3.062E-01  1.013E+05  0.000E+00  0.000E+00  2.931E+02  2.931E+02
  0.000E+00  3.125E-01  1.013E+05  0.000E+00  0.000E+00  2.931E+02  2.931E+02
  0.000E+00  3.188E-01  1.013E+05  0.000E+00  0.000E+00  2.931E+02  2.931E+02
  0.000E+00  3.251E-01  1.013E+05  0.000E+00  0.000E+00  2.931E+02  2.931E+02
  0.000E+00  3.314E-01  1.013E+05  0.000E+00  0.000E+00  2.931E+02  2.931E+02
  0.000E+00  3.377E-01  1.013E+05  0.000E+00  0.000E+00  2.931E+02  2.931E+02
  0.000E+00  3.440E-01  1.013E+05  0.000E+00  0.000E+00  2.930E+02  2.930E+02
  0.000E+00  3.503E-01  1.013E+05  0.000E+00  0.000E+00  2.930E+02  2.930E+02
  0.000E+00  3.567E-01  1.013E+05  0.000E+00  0.000E+00  2.930E+02  2.930E+02
  0.000E+00  3.630E-01  1.013E+05  0.000E+00  0.000E+00  2.930E+02  2.930E+02
  0.000E+00  3.693E-01  1.013E+05  0.000E+00  0.000E+00  2.930E+02  2.930E+02
  0.000E+00  3.756E-01  1.013E+05  0.000E+00  0.000E+00  2.930E+02  2.930E+02
  0.000E+00  3.819E-01  1.013E+05  0.000E+00  0.000E+00  2.930E+02  2.930E+02
  0.000E+00  3.882E-01  1.013E+05  0.000E+00  0.000E+00  2.930E+02  2.930E+02
  0.000E+00  3.945E-01  1.013E+05  0.000E+00  0.000E+00  2.930E+02  2.930E+02
  0.000E+00  4.008E-01  1.013E+05  0.000E+00  0.000E+00  2.930E+02  2.930E+02
  0.000E+00  4.072E-01  1.013E+05  0.000E+00  0.000E+00  2.930E+02  2.930E+02
  0.000E+00  4.135E-01  1.013E+05  0.000E+00  0.000E+00  2.930E+02  2.930E+02
  0.000E+00  4.198E-01  1.013E+05  0.000E+00  0.000E+00  2.930E+02  2.930E+02
  0.000E+00  4.261E-01  1.013E+05  0.000E+00  0.000E+00  2.930E+02  2.930E+02
  0.000E+00  4.324E-01  1.013E+05  0.000E+00  0.000E+00  2.930E+02  2.930E+02
  0.000E+00  4.387E-01  1.013E+05  0.000E+00  0.000E+00  2.930E+02  2.930E+02
  0.000E+00  4.450E-01  1.013E+05  0.000E+00  0.000E+00  2.930E+02  2.930E+02
  0.000E+00  4.513E-01  1.013E+05  0.000E+00  0.000E+00  2.930E+02  2.930E+02
  0.000E+00  4.577E-01  1.013E+05  0.000E+00  0.000E+00  2.930E+02  2.930E+02
  0.000E+00  4.640E-01  1.013E+05  0.000E+00  0.000E+00  2.930E+02  2.930E+02
  0.000E+00  4.703E-01  1.013E+05  0.000E+00  0.000E+00  2.930E+02  2.930E+02
  0.000E+00  4.766E-01  1.013E+05  0.000E+00  0.000E+00  2.930E+02  2.930E+02
  0.000E+00  4.829E-01  1.013E+05  0.000E+00  0.000E+00  2.930E+02  2.930E+02
  0.000E+00  4.892E-01  1.013E+05  0.000E+00  0.000E+00  2.930E+02  2.930E+02
  0.000E+00  4.955E-01  1.013E+05  0.000E+00  0.000E+00  2.930E+02  2.930E+02
  0.000E+00  5.018E-01  1.013E+05  0.000E+00  0.000E+00  2.930E+02  2.930E+02
  0.000E+00  5.050E-01  1.013E+05  0.000E+00  0.000E+00  2.930E+02  2.930E+02
  1.417E-02  0.000E+00  1.013E+05  0.000E+00  0.000E+00  2.930E+02  2.933E+02
  1.417E-02  3.156E-03  1.013E+05  6.276E-08 -5.281E-05  2.932E+02  2.933E+02
  1.417E-02  9.469E-03  1.013E+05  5.657E-08 -2.937E-05  2.935E+02  2.935E+02
  1.417E-02  1.578E-02  1.013E+05  5.392E-08 -2.075E-05  2.938E+02  2.938E+02
  1.417E-02  2.209E-02  1.013E+05  5.454E-08 -1.514E-05  2.940E+02  2.939E+02
  1.417E-02  2.841E-02  1.013E+05  6.138E-08 -1.560E-05  2.941E+02  2.941E+02
  1.417E-02  3.472E-02  1.013E+05  7.622E-08 -1.524E-05  2.942E+02  2.942E+02
  1.417E-02  4.103E-02  1.013E+05  1.016E-07 -1.408E-05  2.943E+02  2.944E+02
  1.417E-02  4.734E-02  1.013E+05  1.353E-07 -1.806E-05  2.945E+02  2.947E+02
  1.417E-02  5.366E-02  1.013E+05  2.088E-07 -2.780E-05  2.949E+02  2.952E+02
  1.417E-02  5.997E-02  1.013E+05  1.651E-07 -2.896E-05  2.957E+02  2.964E+02
  1.417E-02  6.628E-02  1.013E+05  1.631E-07 -2.688E-05  2.974E+02  2.987E+02
  1.417E-02  7.259E-02  1.013E+05  1.877E-07 -2.879E-05  3.013E+02  3.037E+02
  1.417E-02  7.891E-02  1.013E+05  1.952E-07 -2.900E-05  3.095E+02  3.139E+02
  1.417E-02  8.522E-02  1.013E+05  2.154E-07 -3.131E-05  3.262E+02  3.342E+02
  1.417E-02  9.153E-02  1.013E+05  1.826E-07 -5.596E-05  3.574E+02  3.717E+02
  1.417E-02  9.784E-02  1.013E+05  4.126E-07 -1.927E-04  4.098E+02  4.436E+02
  1.417E-02  1.042E-01  1.013E+05 -6.086E-07  5.303E-04  4.832E+02  6.328E+02
  1.417E-02  1.105E-01  1.013E+05 -1.036E-05 -1.690E-04  4.074E+02  4.420E+02
  1.417E-02  1.168E-01  1.013E+05 -6.895E-07 -4.355E-05  3.546E+02  3.696E+02
  1.417E-02  1.231E-01  1.013E+05  3.918E-07 -3.565E-05  3.242E+02  3.321E+02
  1.417E-02  1.294E-01  1.013E+05  1.262E-07 -2.867E-05  3.083E+02  3.127E+02
  1.417E-02  1.357E-01  1.013E+05  1.139E-07 -2.035E-05  3.007E+02  3.030E+02
  1.417E-02  1.420E-01  1.013E+05  7.023E-08 -1.975E-05  2.971E+02  2.983E+02
  1.417E-02  1.483E-01  1.013E+05  3.993E-08 -1.420E-05  2.955E+02  2.961E+02
  1.417E-02  1.547E-01  1.013E+05  1.442E-08 -1.723E-05  2.947E+02  2.950E+02
  1.417E-02  1.610E-01  1.013E+05 -5.064E-09 -2.575E-05  2.943E+02  2.945E+02
  1.417E-02  1.673E-01  1.013E+05 -1.868E-08 -1.970E-05  2.941E+02  2.942E+02
  1.417E-02  1.736E-01  1.013E+05 -2.686E-08 -1.575E-05  2.940E+02  2.940E+02
  1.417E-02  1.799E-01  1.013E+05 -3.039E-08 -1.168E-05  2.939E+02  2.939E+02
  1.417E-02  1.862E-01  1.013E+05 -3.028E-08 -5.219E-06  2.938E+02  2.938E+02
  1.417E-02  1.925E-01  1.013E+05 -2.779E-08 -1.272E-05  2.937E+02  2.937E+02
  1.417E-02  1.988E-01  1.013E+05 -2.416E-08 -1.372E-05  2.936E+02  2.936E+02
  1.417E-02  2.052E-01  1.013E+05 -2.065E-08 -1.959E-06  2.936E+02  2.936E+02
  1.417E-02  2.115E-01  1.013E+05 -1.818E-08  2.150E-06  2.935E+02  2.935E+02
  1.417E-02  2.178E-01  1.013E+05 -1.954E-08  2.007E-06  2.935E+02  2.935E+02
  1.417E-02  2.241E-01  1.013E+05 -2.333E-08 -2.426E-06  2.934E+02  2.934E+02
  1.417E-02  2.304E-01  1.013E+05 -3.020E-08 -1.436E-05  2.934E+02  2.934E+02
  1.417E-02  2.367E-01  1.013E+05 -4.098E-08 -1.445E-05  2.933E+02  2.933E+02
  1.417E-02  2.430E-01  1.013E+05 -5.766E-08 -2.741E-06  2.933E+02  2.933E+02
  1.417E-02  2.493E-01  1.013E+05 -7.784E-08  1.683E-06  2.933E+02  2.933E+02
  1.417E-02  2.557E-01  1.013E+05 -1.323E-07  6.424E-07  2.932E+02  2.932E+02
  1.417E-02  2.620E-01  1.013E+05 -6.204E-08  5.024E-07  2.932E+02  2.932E+02
  1.417E-02  2.683E-01  1.013E+05 -2.464E-08  5.132E-07  2.932E+02  2.932E+02
  1.417E-02  2.746E-01  1.013E+05  1.247E-08  4.948E-07  2.932E+02  2.932E+02
  1.417E-02  2.809E-01  1.013E+05  5.067E-08  5.128E-07  2.931E+02  2.931E+02
  1.417E-02  2.872E-01  1.013E+05  8.995E-08  3.762E-07  2.931E+02  2.931E+02
  1.417E-02  2.935E-01  1.013E+05  1.591E-07  1.185E-06  2.931E+02  2.931E+02
  1.417E-02  2.998E-01  1.013E+05  1.898E-07 -3.257E-06  2.931E+02  2.931E+02
  1.417E-02  3.062E-01  1.013E+05  2.887E-07 -1.544E-05  2.931E+02  2.931E+02
  1.417E-02  3.125E-01  1.013E+05  3.623E-07 -1.582E-05  2.931E+02  2.931E+02
  1.417E-02  3.188E-01  1.013E+05  4.217E-07 -4.043E-06  2.931E+02  2.931E+02
  1.417E-02  3.251E-01  1.013E+05  3.588E-07  7.317E-07  2.931E+02  2.931E+02
  1.417E-02  3.314E-01  1.013E+05  2.466E-07  1.872E-07  2.931E+02  2.931E+02
  1.417E-02  3.377E-01  1.013E+05  1.785E-07  2.287E-07  2.931E+02  2.931E+02
  1.417E-02  3.440E-01  1.013E+05  1.293E-07  1.861E-07  2.930E+02  2.930E+02
  1.417E-02  3.503E-01  1.013E+05  9.456E-08  1.648E-07  2.930E+02  2.930E+02
  1.417E-02  3.567E-01  1.013E+05  6.975E-08  1.452E-07  2.930E+02  2.930E+02
  1.417E-02  3.630E-01  1.013E+05  5.187E-08  1.292E-07  2.930E+02  2.930E+02
  1.417E-02  3.693E-01  1.013E+05  3.890E-08  1.151E-07  2.930E+02  2.930E+02
  1.417E-02  3.756E-01  1.013E+05  2.941E-08  1.025E-07  2.930E+02  2.930E+02
  1.417E-02  3.819E-01  1.013E+05  2.239E-08  9.118E-08  2.930E+02  2.930E+02
  1.417E-02  3.882E-01  1.013E+05  1.716E-08  8.101E-08  2.930E+02  2.930E+02
  1.417E-02  3.945E-01  1.013E+05  1.323E-08  7.191E-08  2.930E+02  2.930E+02
  1.417E-02  4.008E-01  1.013E+05  1.025E-08  6.377E-08  2.930E+02  2.930E+02
  1.417E-02  4.072E-01  1.013E+05  7.975E-09  5.652E-08  2.930E+02  2.930E+02
  1.417E-02  4.135E-01  1.013E+05  6.229E-09  5.010E-08  2.930E+02  2.930E+02
  1.417E-02  4.198E-01  1.013E+05  4.880E-09  4.447E-08  2.930E+02  2.930E+02
  1.417E-02  4.261E-01  1.013E+05  3.834E-09  3.955E-08  2.930E+02  2.930E+02
  1.417E-02  4.324E-01  1.013E+05  3.021E-09  3.526E-08  2.930E+02  2.930E+02
  1.417E-02  4.387E-01  1.013E+05  2.386E-09  3.150E-08  2.930E+02  2.930E+02
  1.417E-02  4.450E-01  1.013E+05  1.889E-09  2.816E-08  2.930E+02  2.930E+02
  1.417E-02  4.513E-01  1.013E+05  1.495E-09  2.514E-08  2.930E+02  2.930E+02
  1.417E-02  4.577E-01  1.013E+05  1.182E-09  2.236E-08  2.930E+02  2.930E+02
  1.417E-02  4.640E-01  1.013E+05  9.287E-10  1.978E-08  2.930E+02  2.930E+02
  1.417E-02  4.703E-01  1.013E+05  7.219E-10  1.735E-08  2.930E+02  2.930E+02
  1.417E-02  4.766E-01  1.013E+05  5.508E-10  1.507E-08  2.930E+02  2.930E+02
  1.417E-02  4.829E-01  1.013E+05  4.080E-10  1.288E-08  2.930E+02  2.930E+02
  1.417E-02  4.892E-01  1.013E+05  2.893E-10  1.097E-08  2.930E+02  2.930E+02
  1.417E-02  4.955E-01  1.013E+05  1.837E-10  8.091E-09  2.930E+02  2.930E+02
  1.417E-02  5.018E-01  1.013E+05  1.293E-10  1.114E-08  2.930E+02  2.930E+02
  1.417E-02  5.050E-01  1.013E+05  1.293E-10  1.114E-08  2.930E+02  2.930E+02
  4.252E-02  0.000E+00  1.013E+05  0.000E+00  0.000E+00  2.930E+02  2.933E+02
  4.252E-02  3.156E-03  1.013E+05  4.891E-08 -5.267E-05  2.932E+02  2.933E+02
  4.252E-02  9.469E-03  1.013E+05  4.356E-08 -2.918E-05  2.936E+02  2.936E+02
  4.252E-02  1.578E-02  1.013E+05  4.069E-08 -2.047E-05  2.938E+02  2.938E+02
  4.252E-02  2.209E-02  1.013E+05  4.055E-08 -1.482E-05  2.940E+02  2.940E+02
  4.252E-02  2.841E-02  1.013E+05  4.583E-08 -1.525E-05  2.941E+02  2.941E+02
  4.252E-02  3.472E-02  1.013E+05  5.814E-08 -1.485E-05  2.942E+02  2.943E+02
  4.252E-02  4.103E-02  1.013E+05  7.852E-08 -1.364E-05  2.944E+02  2.944E+02
  4.252E-02  4.734E-02  1.013E+05  1.054E-07 -1.744E-05  2.946E+02  2.947E+02
  4.252E-02  5.366E-02  1.013E+05  1.539E-07 -2.756E-05  2.949E+02  2.952E+02
  4.252E-02  5.997E-02  1.013E+05  1.437E-07 -2.914E-05  2.957E+02  2.963E+02
  4.252E-02  6.628E-02  1.013E+05  1.542E-07 -2.676E-05  2.974E+02  2.987E+02
  4.252E-02  7.259E-02  1.013E+05  1.906E-07 -2.855E-05  3.013E+02  3.037E+02
  4.252E-02  7.891E-02  1.013E+05  2.047E-07 -2.873E-05  3.095E+02  3.140E+02
  4.252E-02  8.522E-02  1.013E+05  2.270E-07 -3.112E-05  3.262E+02  3.342E+02
  4.252E-02  9.153E-02  1.013E+05  1.908E-07 -5.467E-05  3.574E+02  3.718E+02
  4.252E-02  9.784E-02  1.013E+05  4.169E-07 -1.960E-04  4.098E+02  4.437E+02
  4.252E-02  1.042E-01  1.013E+05 -6.559E-07  5.186E-04  4.833E+02  6.327E+02
  4.252E-02  1.105E-01  1.013E+05 -2.099E-06 -1.686E-04  4.075E+02  4.415E+02
  4.252E-02  1.168E-01  1.013E+05 -6.967E-07 -3.212E-05  3.547E+02  3.698E+02
  4.252E-02  1.231E-01  1.013E+05  3.998E-07 -3.080E-05  3.243E+02  3.326E+02
  4.252E-02  1.294E-01  1.013E+05  1.409E-07 -2.893E-05  3.085E+02  3.130E+02
  4.252E-02  1.357E-01  1.013E+05  1.277E-07 -1.954E-05  3.008E+02  3.032E+02
  4.252E-02  1.420E-01  1.013E+05  7.898E-08 -1.897E-05  2.973E+02  2.985E+02
  4.252E-02  1.483E-01  1.013E+05  4.243E-08 -1.334E-05  2.956E+02  2.963E+02
  4.252E-02  1.547E-01  1.013E+05  1.078E-08 -1.637E-05  2.949E+02  2.952E+02
  4.252E-02  1.610E-01  1.013E+05 -1.381E-08 -2.493E-05  2.945E+02  2.946E+02
  4.252E-02  1.673E-01  1.013E+05 -3.108E-08 -1.894E-05  2.943E+02  2.943E+02
  4.252E-02  1.736E-01  1.013E+05 -4.141E-08 -1.508E-05  2.941E+02  2.941E+02
  4.252E-02  1.799E-01  1.013E+05 -4.587E-08 -1.110E-05  2.940E+02  2.940E+02
  4.252E-02  1.862E-01  1.013E+05 -4.582E-08 -4.728E-06  2.939E+02  2.939E+02
  4.252E-02  1.925E-01  1.013E+05 -4.278E-08 -1.231E-05  2.938E+02  2.938E+02
  4.252E-02  1.988E-01  1.013E+05 -3.823E-08 -1.338E-05  2.937E+02  2.937E+02
  4.252E-02  2.052E-01  1.013E+05 -3.346E-08 -1.684E-06  2.936E+02  2.936E+02
  4.252E-02  2.115E-01  1.013E+05 -2.942E-08  2.357E-06  2.935E+02  2.935E+02
  4.252E-02  2.178E-01  1.013E+05 -2.785E-08  2.150E-06  2.935E+02  2.935E+02
  4.252E-02  2.241E-01  1.013E+05 -2.825E-08 -2.337E-06  2.934E+02  2.934E+02
  4.252E-02  2.304E-01  1.013E+05 -3.065E-08 -1.433E-05  2.934E+02  2.934E+02
  4.252E-02  2.367E-01  1.013E+05 -3.634E-08 -1.448E-05  2.933E+02  2.933E+02
  4.252E-02  2.430E-01  1.013E+05 -4.546E-08 -2.827E-06  2.933E+02  2.933E+02
  4.252E-02  2.493E-01  1.013E+05 -5.712E-08  1.413E-06  2.933E+02  2.933E+02
  4.252E-02  2.557E-01  1.013E+05 -8.685E-08  7.672E-07  2.932E+02  2.932E+02
  4.252E-02  2.620E-01  1.013E+05 -5.453E-08  1.034E-06  2.932E+02  2.932E+02
  4.252E-02  2.683E-01  1.013E+05 -4.140E-08  8.917E-07  2.932E+02  2.932E+02
  4.252E-02  2.746E-01  1.013E+05 -3.272E-08  8.714E-07  2.932E+02  2.932E+02
  4.252E-02  2.809E-01  1.013E+05 -2.879E-08  8.953E-07  2.931E+02  2.932E+02
  4.252E-02  2.872E-01  1.013E+05 -3.864E-08  8.957E-07  2.931E+02  2.931E+02
  4.252E-02  2.935E-01  1.013E+05 -1.251E-08  1.664E-06  2.931E+02  2.931E+02
  4.252E-02  2.998E-01  1.013E+05 -2.442E-07 -2.647E-06  2.931E+02  2.931E+02
  4.252E-02  3.062E-01  1.013E+05  9.245E-07 -1.464E-05  2.931E+02  2.931E+02
  4.252E-02  3.125E-01  1.013E+05  2.408E-06 -1.520E-05  2.931E+02  2.931E+02
  4.252E-02  3.188E-01  1.013E+05  9.835E-07 -4.040E-06  2.931E+02  2.931E+02
  4.252E-02  3.251E-01  1.013E+05 -1.151E-07 -3.859E-08  2.931E+02  2.931E+02
  4.252E-02  3.314E-01  1.013E+05  6.937E-08 -6.065E-07  2.931E+02  2.931E+02
  4.252E-02  3.377E-01  1.013E+05  3.582E-08 -2.819E-07  2.931E+02  2.931E+02
  4.252E-02  3.440E-01  1.013E+05  3.764E-08 -1.742E-07  2.930E+02  2.930E+02
  4.252E-02  3.503E-01  1.013E+05  3.299E-08 -8.611E-08  2.930E+02  2.930E+02
  4.252E-02  3.567E-01  1.013E+05  2.930E-08 -3.074E-08  2.930E+02  2.930E+02
  4.252E-02  3.630E-01  1.013E+05  2.563E-08  5.276E-09  2.930E+02  2.930E+02
  4.252E-02  3.693E-01  1.013E+05  2.228E-08  2.759E-08  2.930E+02  2.930E+02
  4.252E-02  3.756E-01  1.013E+05  1.928E-08  4.068E-08  2.930E+02  2.930E+02
  4.252E-02  3.819E-01  1.013E+05  1.662E-08  4.752E-08  2.930E+02  2.930E+02
  4.252E-02  3.882E-01  1.013E+05  1.428E-08  5.019E-08  2.930E+02  2.930E+02
  4.252E-02  3.945E-01  1.013E+05  1.223E-08  5.015E-08  2.930E+02  2.930E+02
  4.252E-02  4.008E-01  1.013E+05  1.044E-08  4.838E-08  2.930E+02  2.930E+02
  4.252E-02  4.072E-01  1.013E+05  8.871E-09  4.558E-08  2.930E+02  2.930E+02
  4.252E-02  4.135E-01  1.013E+05  7.497E-09  4.224E-08  2.930E+02  2.930E+02
  4.252E-02  4.198E-01  1.013E+05  6.297E-09  3.871E-08  2.930E+02  2.930E+02
  4.252E-02  4.261E-01  1.013E+05  5.258E-09  3.522E-08  2.930E+02  2.930E+02
  4.252E-02  4.324E-01  1.013E+05  4.365E-09  3.191E-08  2.930E+02  2.930E+02
  4.252E-02  4.387E-01  1.013E+05  3.606E-09  2.884E-08  2.930E+02  2.930E+02
  4.252E-02  4.450E-01  1.013E+05  2.966E-09  2.601E-08  2.930E+02  2.930E+02
  4.252E-02  4.513E-01  1.013E+05  2.428E-09  2.339E-08  2.930E+02  2.930E+02
  4.252E-02  4.577E-01  1.013E+05  1.976E-09  2.093E-08  2.930E+02  2.930E+02
  4.252E-02  4.640E-01  1.013E+05  1.594E-09  1.859E-08  2.930E+02  2.930E+02
  4.252E-02  4.703E-01  1.013E+05  1.268E-09  1.636E-08  2.930E+02  2.930E+02
  4.252E-02  4.766E-01  1.013E+05  9.896E-10  1.422E-08  2.930E+02  2.930E+02
  4.252E-02  4.829E-01  1.013E+05  7.483E-10  1.213E-08  2.930E+02  2.930E+02
  4.252E-02  4.892E-01  1.013E+05  5.409E-10  1.023E-08  2.930E+02  2.930E+02
  4.252E-02  4.955E-01  1.013E+05  3.479E-10  7.473E-09  2.930E+02  2.930E+02
  4.252E-02  5.018E-01  1.013E+05  2.470E-10  9.709E-09  2.930E+02  2.930E+02
  4.252E-02  5.050E-01  1.013E+05  2.470E-10  9.709E-09  2.930E+02  2.930E+02
  7.087E-02  0.000E+00  1.013E+05  0.000E+00  0.000E+00  2.930E+02  2.933E+02
  7.087E-02  3.156E-03  1.013E+05  2.476E-08 -5.273E-05  2.932E+02  2.933E+02
  7.087E-02  9.469E-03  1.013E+05  2.341E-08 -2.930E-05  2.935E+02  2.935E+02
  7.087E-02  1.578E-02  1.013E+05  2.158E-08 -2.065E-05  2.938E+02  2.938E+02
  7.087E-02  2.209E-02  1.013E+05  1.874E-08 -1.506E-05  2.940E+02  2.939E+02
  7.087E-02  2.841E-02  1.013E+05  1.411E-08 -1.555E-05  2.941E+02  2.941E+02
  7.087E-02  3.472E-02  1.013E+05  8.111E-09 -1.521E-05  2.942E+02  2.942E+02
  7.087E-02  4.103E-02  1.013E+05 -1.307E-09 -1.406E-05  2.943E+02  2.944E+02
  7.087E-02  4.734E-02  1.013E+05 -1.256E-08 -1.797E-05  2.945E+02  2.946E+02
  7.087E-02  5.366E-02  1.013E+05 -4.196E-08 -2.790E-05  2.949E+02  2.952E+02
  7.087E-02  5.997E-02  1.013E+05 -1.231E-08 -2.925E-05  2.956E+02  2.963E+02
  7.087E-02  6.628E-02  1.013E+05 -5.903E-09 -2.699E-05  2.974E+02  2.987E+02
  7.087E-02  7.259E-02  1.013E+05  7.143E-10 -2.889E-05  3.012E+02  3.036E+02
  7.087E-02  7.891E-02  1.013E+05 -2.364E-08 -2.916E-05  3.095E+02  3.139E+02
  7.087E-02  8.522E-02  1.013E+05 -1.344E-08 -3.166E-05  3.262E+02  3.342E+02
  7.087E-02  9.153E-02  1.013E+05 -3.946E-08 -5.531E-05  3.574E+02  3.717E+02
  7.087E-02  9.784E-02  1.013E+05 -7.107E-08 -1.968E-04  4.097E+02  4.436E+02
  7.087E-02  1.042E-01  1.013E+05 -3.223E-08  5.184E-04  4.832E+02  6.327E+02
  7.087E-02  1.105E-01  1.013E+05  1.077E-08 -1.690E-04  4.075E+02  4.414E+02
  7.087E-02  1.168E-01  1.013E+05  4.426E-08 -3.212E-05  3.547E+02  3.697E+02
  7.087E-02  1.231E-01  1.013E+05  3.829E-08 -3.101E-05  3.243E+02  3.325E+02
  7.087E-02  1.294E-01  1.013E+05  3.129E-08 -2.907E-05  3.085E+02  3.130E+02
  7.087E-02  1.357E-01  1.013E+05  2.621E-08 -1.964E-05  3.008E+02  3.032E+02
  7.087E-02  1.420E-01  1.013E+05  2.126E-08 -1.904E-05  2.973E+02  2.985E+02
  7.087E-02  1.483E-01  1.013E+05  1.730E-08 -1.337E-05  2.956E+02  2.963E+02
  7.087E-02  1.547E-01  1.013E+05  1.431E-08 -1.639E-05  2.949E+02  2.952E+02
  7.087E-02  1.610E-01  1.013E+05  1.222E-08 -2.493E-05  2.945E+02  2.946E+02
  7.087E-02  1.673E-01  1.013E+05  1.080E-08 -1.895E-05  2.943E+02  2.943E+02
  7.087E-02  1.736E-01  1.013E+05  9.812E-09 -1.509E-05  2.941E+02  2.941E+02
  7.087E-02  1.799E-01  1.013E+05  9.108E-09 -1.111E-05  2.940E+02  2.940E+02
  7.087E-02  1.862E-01  1.013E+05  8.658E-09 -4.743E-06  2.939E+02  2.939E+02
  7.087E-02  1.925E-01  1.013E+05  8.564E-09 -1.233E-05  2.938E+02  2.938E+02
  7.087E-02  1.988E-01  1.013E+05  9.030E-09 -1.341E-05  2.937E+02  2.937E+02
  7.087E-02  2.052E-01  1.013E+05  1.059E-08 -1.717E-06  2.936E+02  2.936E+02
  7.087E-02  2.115E-01  1.013E+05  1.356E-08  2.325E-06  2.935E+02  2.935E+02
  7.087E-02  2.178E-01  1.013E+05  2.088E-08  2.121E-06  2.935E+02  2.935E+02
  7.087E-02  2.241E-01  1.013E+05  2.684E-08 -2.364E-06  2.934E+02  2.934E+02
  7.087E-02  2.304E-01  1.013E+05  5.494E-08 -1.435E-05  2.934E+02  2.934E+02
  7.087E-02  2.367E-01  1.013E+05  3.593E-08 -1.450E-05  2.933E+02  2.933E+02
  7.087E-02  2.430E-01  1.013E+05  4.043E-08 -2.833E-06  2.933E+02  2.933E+02
  7.087E-02  2.493E-01  1.013E+05  4.405E-08  1.482E-06  2.933E+02  2.933E+02
  7.087E-02  2.557E-01  1.013E+05  6.702E-08  6.285E-07  2.932E+02  2.932E+02
  7.087E-02  2.620E-01  1.013E+05  2.856E-08  6.818E-07  2.932E+02  2.932E+02
  7.087E-02  2.683E-01  1.013E+05  6.097E-09  5.944E-07  2.932E+02  2.932E+02
  7.087E-02  2.746E-01  1.013E+05 -1.780E-08  5.421E-07  2.932E+02  2.932E+02
  7.087E-02  2.809E-01  1.013E+05 -4.414E-08  4.843E-07  2.931E+02  2.931E+02
  7.087E-02  2.872E-01  1.013E+05 -8.078E-08  4.572E-07  2.931E+02  2.931E+02
  7.087E-02  2.935E-01  1.013E+05 -1.058E-07  2.797E-07  2.931E+02  2.931E+02
  7.087E-02  2.998E-01  1.013E+05 -3.408E-07  9.753E-07  2.931E+02  2.931E+02
  7.087E-02  3.062E-01  1.013E+05  7.626E-07 -3.499E-06  2.931E+02  2.931E+02
  7.087E-02  3.125E-01  1.013E+05  2.243E-06 -1.552E-05  2.931E+02  2.931E+02
  7.087E-02  3.188E-01  1.013E+05  8.166E-07 -1.534E-05  2.931E+02  2.931E+02
  7.087E-02  3.251E-01  1.013E+05 -2.904E-07 -3.342E-06  2.931E+02  2.931E+02
  7.087E-02  3.314E-01  1.013E+05 -3.935E-08  8.961E-07  2.931E+02  2.931E+02
  7.087E-02  3.377E-01  1.013E+05 -3.883E-08  1.149E-07  2.931E+02  2.931E+02
  7.087E-02  3.440E-01  1.013E+05 -1.442E-08  1.987E-07  2.931E+02  2.931E+02
  7.087E-02  3.503E-01  1.013E+05 -4.205E-09  1.490E-07  2.930E+02  2.930E+02
  7.087E-02  3.567E-01  1.013E+05  2.011E-09  1.301E-07  2.930E+02  2.930E+02
  7.087E-02  3.630E-01  1.013E+05  5.145E-09  1.120E-07  2.930E+02  2.930E+02
  7.087E-02  3.693E-01  1.013E+05  6.623E-09  9.801E-08  2.930E+02  2.930E+02
  7.087E-02  3.756E-01  1.013E+05  7.151E-09  8.641E-08  2.930E+02  2.930E+02
  7.087E-02  3.819E-01  1.013E+05  7.154E-09  7.656E-08  2.930E+02  2.930E+02
  7.087E-02  3.882E-01  1.013E+05  6.864E-09  6.821E-08  2.930E+02  2.930E+02
  7.087E-02  3.945E-01  1.013E+05  6.412E-09  6.106E-08  2.930E+02  2.930E+02
  7.087E-02  4.008E-01  1.013E+05  5.873E-09  5.488E-08  2.930E+02  2.930E+02
  7.087E-02  4.072E-01  1.013E+05  5.292E-09  4.948E-08  2.930E+02  2.930E+02
  7.087E-02  4.135E-01  1.013E+05  4.697E-09  4.468E-08  2.930E+02  2.930E+02
  7.087E-02  4.198E-01  1.013E+05  4.112E-09  4.035E-08  2.930E+02  2.930E+02
  7.087E-02  4.261E-01  1.013E+05  3.554E-09  3.641E-08  2.930E+02  2.930E+02
  7.087E-02  4.324E-01  1.013E+05  3.037E-09  3.282E-08  2.930E+02  2.930E+02
  7.087E-02  4.387E-01  1.013E+05  2.572E-09  2.953E-08  2.930E+02  2.930E+02
  7.087E-02  4.450E-01  1.013E+05  2.164E-09  2.650E-08  2.930E+02  2.930E+02
  7.087E-02  4.513E-01  1.013E+05  1.811E-09  2.369E-08  2.930E+02  2.930E+02
  7.087E-02  4.577E-01  1.013E+05  1.509E-09  2.106E-08  2.930E+02  2.930E+02
  7.087E-02  4.640E-01  1.013E+05  1.249E-09  1.857E-08  2.930E+02  2.930E+02
  7.087E-02  4.703E-01  1.013E+05  1.022E-09  1.619E-08  2.930E+02  2.930E+02
  7.087E-02  4.766E-01  1.013E+05  8.218E-10  1.392E-08  2.930E+02  2.930E+02
  7.087E-02  4.829E-01  1.013E+05  6.419E-10  1.171E-08  2.930E+02  2.930E+02
  7.087E-02  4.892E-01  1.013E+05  4.803E-10  9.690E-09  2.930E+02  2.930E+02
  7.087E-02  4.955E-01  1.013E+05  3.194E-10  6.976E-09  2.930E+02  2.930E+02
  7.087E-02  5.018E-01  1.013E+05  2.329E-10  8.422E-09  2.930E+02  2.930E+02
  7.087E-02  5.050E-01  1.013E+05  2.329E-10  8.422E-09  2.930E+02  2.930E+02
  9.922E-02  0.000E+00  1.013E+05  0.000E+00  0.000E+00  2.930E+02  2.933E+02
  9.922E-02  3.156E-03  1.013E+05  6.018E-08 -5.267E-05  2.932E+02  2.933E+02
  9.922E-02  9.469E-03  1.013E+05  4.854E-08 -2.918E-05  2.936E+02  2.936E+02
  9.922E-02  1.578E-02  1.013E+05  3.880E-08 -2.046E-05  2.938E+02  2.938E+02
  9.922E-02  2.209E-02  1.013E+05  2.991E-08 -1.479E-05  2.940E+02  2.940E+02
  9.922E-02  2.841E-02  1.013E+05 -9.144E-10 -1.521E-05  2.941E+02  2.941E+02
  9.922E-02  3.472E-02  1.013E+05  1.574E-08 -1.481E-05  2.943E+02  2.943E+02
  9.922E-02  4.103E-02  1.013E+05  1.128E-08 -1.361E-05  2.944E+02  2.944E+02
  9.922E-02  4.734E-02  1.013E+05  1.071E-08 -1.747E-05  2.946E+02  2.947E+02
  9.922E-02  5.366E-02  1.013E+05  1.135E-08 -2.738E-05  2.949E+02  2.953E+02
  9.922E-02  5.997E-02  1.013E+05  2.261E-08 -2.871E-05  2.957E+02  2.964E+02
  9.922E-02  6.628E-02  1.013E+05  3.799E-08 -2.641E-05  2.974E+02  2.988E+02
  9.922E-02  7.259E-02  1.013E+05  9.381E-08 -2.836E-05  3.013E+02  3.037E+02
  9.922E-02  7.891E-02  1.013E+05  9.139E-08 -2.847E-05  3.096E+02  3.140E+02
  9.922E-02  8.522E-02  1.013E+05  9.699E-08 -3.085E-05  3.263E+02  3.343E+02
  9.922E-02  9.153E-02  1.013E+05  1.667E-08 -5.463E-05  3.575E+02  3.718E+02
  9.922E-02  9.784E-02  1.013E+05 -2.466E-08 -1.962E-04  4.098E+02  4.436E+02
  9.922E-02  1.042E-01  1.013E+05  3.811E-08  5.163E-04  4.833E+02  6.326E+02
  9.922E-02  1.105E-01  1.013E+05  1.410E-07 -1.684E-04  4.075E+02  4.415E+02
  9.922E-02  1.168E-01  1.013E+05  7.240E-08 -3.188E-05  3.547E+02  3.698E+02
  9.922E-02  1.231E-01  1.013E+05  4.271E-08 -3.080E-05  3.243E+02  3.326E+02
  9.922E-02  1.294E-01  1.013E+05  2.142E-08 -2.897E-05  3.085E+02  3.130E+02
  9.922E-02  1.357E-01  1.013E+05  1.237E-08 -1.961E-05  3.008E+02  3.032E+02
  9.922E-02  1.420E-01  1.013E+05  1.043E-08 -1.906E-05  2.973E+02  2.985E+02
  9.922E-02  1.483E-01  1.013E+05  1.306E-08 -1.342E-05  2.956E+02  2.963E+02
  9.922E-02  1.547E-01  1.013E+05  1.825E-08 -1.645E-05  2.949E+02  2.952E+02
  9.922E-02  1.610E-01  1.013E+05  2.424E-08 -2.499E-05  2.945E+02  2.946E+02
  9.922E-02  1.673E-01  1.013E+05  2.953E-08 -1.899E-05  2.943E+02  2.943E+02
  9.922E-02  1.736E-01  1.013E+05  3.321E-08 -1.510E-05  2.941E+02  2.941E+02
  9.922E-02  1.799E-01  1.013E+05  3.471E-08 -1.110E-05  2.940E+02  2.940E+02
  9.922E-02  1.862E-01  1.013E+05  3.363E-08 -4.704E-06  2.939E+02  2.939E+02
  9.922E-02  1.925E-01  1.013E+05  2.988E-08 -1.227E-05  2.938E+02  2.938E+02
  9.922E-02  1.988E-01  1.013E+05  2.339E-08 -1.333E-05  2.937E+02  2.937E+02
  9.922E-02  2.052E-01  1.013E+05  1.407E-08 -1.619E-06  2.936E+02  2.936E+02
  9.922E-02  2.115E-01  1.013E+05  2.896E-10  2.442E-06  2.936E+02  2.936E+02
  9.922E-02  2.178E-01  1.013E+05 -1.477E-08  2.239E-06  2.935E+02  2.935E+02
  9.922E-02  2.241E-01  1.013E+05 -5.065E-08 -2.164E-06  2.934E+02  2.934E+02
  9.922E-02  2.304E-01  1.013E+05 -5.747E-08 -1.428E-05  2.934E+02  2.934E+02
  9.922E-02  2.367E-01  1.013E+05 -5.875E-08 -1.455E-05  2.933E+02  2.933E+02
  9.922E-02  2.430E-01  1.013E+05 -3.130E-08 -2.803E-06  2.933E+02  2.933E+02
  9.922E-02  2.493E-01  1.013E+05 -2.534E-08  1.510E-06  2.933E+02  2.933E+02
  9.922E-02  2.557E-01  1.013E+05 -2.142E-08  6.668E-07  2.932E+02  2.932E+02
  9.922E-02  2.620E-01  1.013E+05 -2.330E-08  7.224E-07  2.932E+02  2.932E+02
  9.922E-02  2.683E-01  1.013E+05 -2.823E-08  6.391E-07  2.932E+02  2.932E+02
  9.922E-02  2.746E-01  1.013E+05 -3.573E-08  5.951E-07  2.932E+02  2.932E+02
  9.922E-02  2.809E-01  1.013E+05 -4.578E-08  5.546E-07  2.931E+02  2.931E+02
  9.922E-02  2.872E-01  1.013E+05 -5.718E-08  5.570E-07  2.931E+02  2.931E+02
  9.922E-02  2.935E-01  1.013E+05 -7.848E-08  4.391E-07  2.931E+02  2.931E+02
  9.922E-02  2.998E-01  1.013E+05 -6.223E-08  1.208E-06  2.931E+02  2.931E+02
  9.922E-02  3.062E-01  1.013E+05 -2.825E-07 -3.066E-06  2.931E+02  2.931E+02
  9.922E-02  3.125E-01  1.013E+05  8.747E-07 -1.498E-05  2.931E+02  2.931E+02
  9.922E-02  3.188E-01  1.013E+05  2.341E-06 -1.543E-05  2.931E+02  2.931E+02
  9.922E-02  3.251E-01  1.013E+05  8.978E-07 -3.884E-06  2.931E+02  2.931E+02
  9.922E-02  3.314E-01  1.013E+05 -2.031E-07  5.258E-07  2.931E+02  2.931E+02
  9.922E-02  3.377E-01  1.013E+05 -3.385E-09 -1.682E-07  2.931E+02  2.931E+02