VARIABLES="XP","YP","P","U","V","TS","TF"
ZONE T="Zone 001"I=    82 J=    12 F=POINT
  0.000E+00  0.000E+00  1.019E+05  0.000E+00  0.000E+00  2.930E+02  2.930E+02
  0.000E+00  3.156E-03  1.019E+05  0.000E+00  0.000E+00  2.930E+02  2.930E+02
  0.000E+00  9.469E-03  1.019E+05  0.000E+00  0.000E+00  2.930E+02  2.930E+02
  0.000E+00  1.578E-02  1.019E+05  0.000E+00  0.000E+00  2.930E+02  2.930E+02
  0.000E+00  2.209E-02  1.019E+05  0.000E+00  0.000E+00  2.930E+02  2.930E+02
  0.000E+00  2.841E-02  1.019E+05  0.000E+00  0.000E+00  2.930E+02  2.930E+02
  0.000E+00  3.472E-02  1.019E+05  0.000E+00  0.000E+00  2.931E+02  2.931E+02
  0.000E+00  4.103E-02  1.019E+05  0.000E+00  0.000E+00  2.931E+02  2.931E+02
  0.000E+00  4.734E-02  1.019E+05  0.000E+00  0.000E+00  2.932E+02  2.931E+02
  0.000E+00  5.366E-02  1.018E+05  0.000E+00  0.000E+00  2.933E+02  2.932E+02
  0.000E+00  5.997E-02  1.018E+05  0.000E+00  0.000E+00  2.934E+02  2.933E+02
  0.000E+00  6.628E-02  1.018E+05  0.000E+00  0.000E+00  2.936E+02  2.935E+02
  0.000E+00  7.259E-02  1.018E+05  0.000E+00  0.000E+00  2.939E+02  2.937E+02
  0.000E+00  7.891E-02  1.018E+05  0.000E+00  0.000E+00  2.943E+02  2.941E+02
  0.000E+00  8.522E-02  1.018E+05  0.000E+00  0.000E+00  2.949E+02  2.945E+02
  0.000E+00  9.153E-02  1.018E+05  0.000E+00  0.000E+00  2.956E+02  2.952E+02
  0.000E+00  9.784E-02  1.018E+05  0.000E+00  0.000E+00  2.967E+02  2.961E+02
  0.000E+00  1.042E-01  1.018E+05  0.000E+00  0.000E+00  2.981E+02  2.973E+02
  0.000E+00  1.105E-01  1.018E+05  0.000E+00  0.000E+00  2.999E+02  2.988E+02
  0.000E+00  1.168E-01  1.018E+05  0.000E+00  0.000E+00  3.022E+02  3.008E+02
  0.000E+00  1.231E-01  1.018E+05  0.000E+00  0.000E+00  3.050E+02  3.033E+02
  0.000E+00  1.294E-01  1.018E+05  0.000E+00  0.000E+00  3.084E+02  3.064E+02
  0.000E+00  1.357E-01  1.018E+05  0.000E+00  0.000E+00  3.125E+02  3.100E+02
  0.000E+00  1.420E-01  1.017E+05  0.000E+00  0.000E+00  3.173E+02  3.144E+02
  0.000E+00  1.483E-01  1.017E+05  0.000E+00  0.000E+00  3.227E+02  3.194E+02
  0.000E+00  1.547E-01  1.017E+05  0.000E+00  0.000E+00  3.288E+02  3.250E+02
  0.000E+00  1.610E-01  1.017E+05  0.000E+00  0.000E+00  3.354E+02  3.312E+02
  0.000E+00  1.673E-01  1.017E+05  0.000E+00  0.000E+00  3.425E+02  3.380E+02
  0.000E+00  1.736E-01  1.017E+05  0.000E+00  0.000E+00  3.500E+02  3.451E+02
  0.000E+00  1.799E-01  1.017E+05  0.000E+00  0.000E+00  3.576E+02  3.526E+02
  0.000E+00  1.862E-01  1.017E+05  0.000E+00  0.000E+00  3.652E+02  3.601E+02
  0.000E+00  1.925E-01  1.017E+05  0.000E+00  0.000E+00  3.725E+02  3.675E+02
  0.000E+00  1.988E-01  1.017E+05  0.000E+00  0.000E+00  3.795E+02  3.746E+02
  0.000E+00  2.052E-01  1.017E+05  0.000E+00  0.000E+00  3.859E+02  3.813E+02
  0.000E+00  2.115E-01  1.017E+05  0.000E+00  0.000E+00  3.915E+02  3.874E+02
  0.000E+00  2.178E-01  1.017E+05  0.000E+00  0.000E+00  3.962E+02  3.926E+02
  0.000E+00  2.241E-01  1.017E+05  0.000E+00  0.000E+00  3.999E+02  3.969E+02
  0.000E+00  2.304E-01  1.016E+05  0.000E+00  0.000E+00  4.025E+02  4.002E+02
  0.000E+00  2.367E-01  1.016E+05  0.000E+00  0.000E+00  4.040E+02  4.024E+02
  0.000E+00  2.430E-01  1.016E+05  0.000E+00  0.000E+00  4.043E+02  4.035E+02
  0.000E+00  2.493E-01  1.016E+05  0.000E+00  0.000E+00  4.035E+02  4.035E+02
  0.000E+00  2.557E-01  1.016E+05  0.000E+00  0.000E+00  4.017E+02  4.024E+02
  0.000E+00  2.620E-01  1.016E+05  0.000E+00  0.000E+00  3.989E+02  4.003E+02
  0.000E+00  2.683E-01  1.016E+05  0.000E+00  0.000E+00  3.952E+02  3.973E+02
  0.000E+00  2.746E-01  1.016E+05  0.000E+00  0.000E+00  3.908E+02  3.934E+02
  0.000E+00  2.809E-01  1.016E+05  0.000E+00  0.000E+00  3.859E+02  3.889E+02
  0.000E+00  2.872E-01  1.016E+05  0.000E+00  0.000E+00  3.804E+02  3.838E+02
  0.000E+00  2.935E-01  1.016E+05  0.000E+00  0.000E+00  3.746E+02  3.783E+02
  0.000E+00  2.998E-01  1.016E+05  0.000E+00  0.000E+00  3.687E+02  3.726E+02
  0.000E+00  3.062E-01  1.016E+05  0.000E+00  0.000E+00  3.626E+02  3.666E+02
  0.000E+00  3.125E-01  1.015E+05  0.000E+00  0.000E+00  3.566E+02  3.606E+02
  0.000E+00  3.188E-01  1.015E+05  0.000E+00  0.000E+00  3.507E+02  3.547E+02
  0.000E+00  3.251E-01  1.015E+05  0.000E+00  0.000E+00  3.450E+02  3.489E+02
  0.000E+00  3.314E-01  1.015E+05  0.000E+00  0.000E+00  3.395E+02  3.433E+02
  0.000E+00  3.377E-01  1.015E+05  0.000E+00  0.000E+00  3.344E+02  3.380E+02
  0.000E+00  3.440E-01  1.015E+05  0.000E+00  0.000E+00  3.296E+02  3.330E+02
  0.000E+00  3.503E-01  1.015E+05  0.000E+00  0.000E+00  3.251E+02  3.283E+02
  0.000E+00  3.567E-01  1.015E+05  0.000E+00  0.000E+00  3.211E+02  3.240E+02
  0.000E+00  3.630E-01  1.015E+05  0.000E+00  0.000E+00  3.174E+02  3.201E+02
  0.000E+00  3.693E-01  1.015E+05  0.000E+00  0.000E+00  3.141E+02  3.165E+02
  0.000E+00  3.756E-01  1.015E+05  0.000E+00  0.000E+00  3.111E+02  3.133E+02
  0.000E+00  3.819E-01  1.015E+05  0.000E+00  0.000E+00  3.085E+02  3.105E+02
  0.000E+00  3.882E-01  1.015E+05  0.000E+00  0.000E+00  3.062E+02  3.079E+02
  0.000E+00  3.945E-01  1.015E+05  0.000E+00  0.000E+00  3.042E+02  3.057E+02
  0.000E+00  4.008E-01  1.014E+05  0.000E+00  0.000E+00  3.024E+02  3.038E+02
  0.000E+00  4.072E-01  1.014E+05  0.000E+00  0.000E+00  3.009E+02  3.021E+02
  0.000E+00  4.135E-01  1.014E+05  0.000E+00  0.000E+00  2.996E+02  3.006E+02
  0.000E+00  4.198E-01  1.014E+05  0.000E+00  0.000E+00  2.985E+02  2.994E+02
  0.000E+00  4.261E-01  1.014E+05  0.000E+00  0.000E+00  2.976E+02  2.983E+02
  0.000E+00  4.324E-01  1.014E+05  0.000E+00  0.000E+00  2.968E+02  2.974E+02
  0.000E+00  4.387E-01  1.014E+05  0.000E+00  0.000E+00  2.961E+02  2.967E+02
  0.000E+00  4.450E-01  1.014E+05  0.000E+00  0.000E+00  2.956E+02  2.960E+02
  0.000E+00  4.513E-01  1.014E+05  0.000E+00  0.000E+00  2.951E+02  2.955E+02
  0.000E+00  4.577E-01  1.014E+05  0.000E+00  0.000E+00  2.947E+02  2.950E+02
  0.000E+00  4.640E-01  1.014E+05  0.000E+00  0.000E+00  2.944E+02  2.947E+02
  0.000E+00  4.703E-01  1.014E+05  0.000E+00  0.000E+00  2.941E+02  2.944E+02
  0.000E+00  4.766E-01  1.014E+05  0.000E+00  0.000E+00  2.939E+02  2.941E+02
  0.000E+00  4.829E-01  1.014E+05  0.000E+00  0.000E+00  2.938E+02  2.939E+02
  0.000E+00  4.892E-01  1.013E+05  0.000E+00  0.000E+00  2.936E+02  2.937E+02
  0.000E+00  4.955E-01  1.013E+05  0.000E+00  0.000E+00  2.935E+02  2.936E+02
  0.000E+00  5.018E-01  1.013E+05  0.000E+00  0.000E+00  2.934E+02  2.935E+02
  0.000E+00  5.050E-01  1.013E+05  0.000E+00  0.000E+00  2.934E+02  2.935E+02
  1.417E-02  0.000E+00  1.019E+05  8.266E-08  6.500E-02  2.930E+02  2.930E+02
  1.417E-02  3.156E-03  1.019E+05  8.266E-08  6.502E-02  2.930E+02  2.930E+02
  1.417E-02  9.469E-03  1.019E+05  6.248E-08  6.500E-02  2.930E+02  2.930E+02
  1.417E-02  1.578E-02  1.019E+05  4.992E-08  6.500E-02  2.930E+02  2.930E+02
  1.417E-02  2.209E-02  1.019E+05  3.964E-08  6.500E-02  2.930E+02  2.930E+02
  1.417E-02  2.841E-02  1.019E+05  3.167E-08  6.500E-02  2.930E+02  2.930E+02
  1.417E-02  3.472E-02  1.019E+05  2.540E-08  6.499E-02  2.931E+02  2.931E+02
  1.417E-02  4.103E-02  1.019E+05  2.046E-08  6.499E-02  2.931E+02  2.931E+02
  1.417E-02  4.734E-02  1.019E+05  1.654E-08  6.499E-02  2.932E+02  2.931E+02
  1.417E-02  5.366E-02  1.018E+05  1.343E-08  6.500E-02  2.933E+02  2.932E+02
  1.417E-02  5.997E-02  1.018E+05  1.096E-08  6.500E-02  2.934E+02  2.933E+02
  1.417E-02  6.628E-02  1.018E+05  8.979E-09  6.500E-02  2.936E+02  2.935E+02
  1.417E-02  7.259E-02  1.018E+05  7.371E-09  6.500E-02  2.939E+02  2.937E+02
  1.417E-02  7.891E-02  1.018E+05  6.082E-09  6.500E-02  2.943E+02  2.941E+02
  1.417E-02  8.522E-02  1.018E+05  5.046E-09  6.499E-02  2.949E+02  2.945E+02
  1.417E-02  9.153E-02  1.018E+05  4.212E-09  6.500E-02  2.956E+02  2.952E+02
  1.417E-02  9.784E-02  1.018E+05  3.557E-09  6.500E-02  2.967E+02  2.961E+02
  1.417E-02  1.042E-01  1.018E+05  3.004E-09  6.500E-02  2.981E+02  2.973E+02
  1.417E-02  1.105E-01  1.018E+05  2.558E-09  6.500E-02  2.999E+02  2.988E+02
  1.417E-02  1.168E-01  1.018E+05  2.220E-09  6.499E-02  3.022E+02  3.008E+02
  1.417E-02  1.231E-01  1.018E+05  1.952E-09  6.499E-02  3.050E+02  3.033E+02
  1.417E-02  1.294E-01  1.018E+05  1.753E-09  6.499E-02  3.084E+02  3.064E+02
  1.417E-02  1.357E-01  1.018E+05  1.609E-09  6.499E-02  3.125E+02  3.100E+02
  1.417E-02  1.420E-01  1.017E+05  1.519E-09  6.499E-02  3.173E+02  3.144E+02
  1.417E-02  1.483E-01  1.017E+05  1.472E-09  6.498E-02  3.227E+02  3.194E+02
  1.417E-02  1.547E-01  1.017E+05  1.482E-09  6.498E-02  3.288E+02  3.250E+02
  1.417E-02  1.610E-01  1.017E+05  1.547E-09  6.499E-02  3.354E+02  3.312E+02
  1.417E-02  1.673E-01  1.017E+05  1.622E-09  6.498E-02  3.425E+02  3.380E+02
  1.417E-02  1.736E-01  1.017E+05  1.699E-09  6.497E-02  3.500E+02  3.451E+02
  1.417E-02  1.799E-01  1.017E+05  1.813E-09  6.498E-02  3.576E+02  3.526E+02
  1.417E-02  1.862E-01  1.017E+05  1.949E-09  6.498E-02  3.652E+02  3.601E+02
  1.417E-02  1.925E-01  1.017E+05  2.082E-09  6.498E-02  3.725E+02  3.675E+02
  1.417E-02  1.988E-01  1.017E+05  2.203E-09  6.498E-02  3.795E+02  3.746E+02
  1.417E-02  2.052E-01  1.017E+05  2.329E-09  6.498E-02  3.859E+02  3.813E+02
  1.417E-02  2.115E-01  1.017E+05  2.423E-09  6.499E-02  3.915E+02  3.874E+02
  1.417E-02  2.178E-01  1.017E+05  2.474E-09  6.499E-02  3.962E+02  3.926E+02
  1.417E-02  2.241E-01  1.017E+05  2.521E-09  6.499E-02  3.999E+02  3.969E+02
  1.417E-02  2.304E-01  1.016E+05  2.535E-09  6.499E-02  4.025E+02  4.002E+02
  1.417E-02  2.367E-01  1.016E+05  2.489E-09  6.500E-02  4.040E+02  4.024E+02
  1.417E-02  2.430E-01  1.016E+05  2.407E-09  6.500E-02  4.043E+02  4.035E+02
  1.417E-02  2.493E-01  1.016E+05  2.287E-09  6.500E-02  4.035E+02  4.035E+02
  1.417E-02  2.557E-01  1.016E+05  2.129E-09  6.500E-02  4.017E+02  4.024E+02
  1.417E-02  2.620E-01  1.016E+05  1.944E-09  6.500E-02  3.989E+02  4.003E+02
  1.417E-02  2.683E-01  1.016E+05  1.715E-09  6.501E-02  3.952E+02  3.973E+02
  1.417E-02  2.746E-01  1.016E+05  1.448E-09  6.502E-02  3.908E+02  3.934E+02
  1.417E-02  2.809E-01  1.016E+05  1.180E-09  6.502E-02  3.859E+02  3.889E+02
  1.417E-02  2.872E-01  1.016E+05  8.973E-10  6.500E-02  3.804E+02  3.838E+02
  1.417E-02  2.935E-01  1.016E+05  6.092E-10  6.500E-02  3.746E+02  3.783E+02
  1.417E-02  2.998E-01  1.016E+05  3.484E-10  6.502E-02  3.687E+02  3.726E+02
  1.417E-02  3.062E-01  1.016E+05  9.856E-11  6.503E-02  3.626E+02  3.666E+02
  1.417E-02  3.125E-01  1.015E+05 -1.181E-10  6.501E-02  3.566E+02  3.606E+02
  1.417E-02  3.188E-01  1.015E+05 -3.188E-10  6.500E-02  3.507E+02  3.547E+02
  1.417E-02  3.251E-01  1.015E+05 -5.056E-10  6.502E-02  3.450E+02  3.489E+02
  1.417E-02  3.314E-01  1.015E+05 -6.583E-10  6.503E-02  3.395E+02  3.433E+02
  1.417E-02  3.377E-01  1.015E+05 -7.927E-10  6.502E-02  3.344E+02  3.380E+02
  1.417E-02  3.440E-01  1.015E+05 -8.983E-10  6.501E-02  3.296E+02  3.330E+02
  1.417E-02  3.503E-01  1.015E+05 -9.987E-10  6.501E-02  3.251E+02  3.283E+02
  1.417E-02  3.567E-01  1.015E+05 -1.111E-09  6.501E-02  3.211E+02  3.240E+02
  1.417E-02  3.630E-01  1.015E+05 -1.217E-09  6.502E-02  3.174E+02  3.201E+02
  1.417E-02  3.693E-01  1.015E+05 -1.306E-09  6.501E-02  3.141E+02  3.165E+02
  1.417E-02  3.756E-01  1.015E+05 -1.357E-09  6.500E-02  3.111E+02  3.133E+02
  1.417E-02  3.819E-01  1.015E+05 -1.372E-09  6.501E-02  3.085E+02  3.105E+02
  1.417E-02  3.882E-01  1.015E+05 -1.371E-09  6.500E-02  3.062E+02  3.079E+02
  1.417E-02  3.945E-01  1.015E+05 -1.361E-09  6.500E-02  3.042E+02  3.057E+02
  1.417E-02  4.008E-01  1.014E+05 -1.316E-09  6.501E-02  3.024E+02  3.038E+02
  1.417E-02  4.072E-01  1.014E+05 -1.273E-09  6.500E-02  3.009E+02  3.021E+02
  1.417E-02  4.135E-01  1.014E+05 -1.210E-09  6.500E-02  2.996E+02  3.006E+02
  1.417E-02  4.198E-01  1.014E+05 -1.132E-09  6.501E-02  2.985E+02  2.994E+02
  1.417E-02  4.261E-01  1.014E+05 -1.067E-09  6.501E-02  2.976E+02  2.983E+02
  1.417E-02  4.324E-01  1.014E+05 -9.906E-10  6.500E-02  2.968E+02  2.974E+02
  1.417E-02  4.387E-01  1.014E+05 -9.099E-10  6.499E-02  2.961E+02  2.967E+02
  1.417E-02  4.450E-01  1.014E+05 -8.239E-10  6.500E-02  2.956E+02  2.960E+02
  1.417E-02  4.513E-01  1.014E+05 -7.520E-10  6.500E-02  2.951E+02  2.955E+02
  1.417E-02  4.577E-01  1.014E+05 -7.011E-10  6.500E-02  2.947E+02  2.950E+02
  1.417E-02  4.640E-01  1.014E+05 -6.211E-10  6.500E-02  2.944E+02  2.947E+02
  1.417E-02  4.703E-01  1.014E+05 -5.405E-10  6.500E-02  2.941E+02  2.944E+02
  1.417E-02  4.766E-01  1.014E+05 -4.770E-10  6.500E-02  2.939E+02  2.941E+02
  1.417E-02  4.829E-01  1.014E+05 -4.066E-10  6.500E-02  2.938E+02  2.939E+02
  1.417E-02  4.892E-01  1.013E+05 -3.319E-10  6.500E-02  2.936E+02  2.937E+02
  1.417E-02  4.955E-01  1.013E+05 -2.435E-10  6.500E-02  2.935E+02  2.936E+02
  1.417E-02  5.018E-01  1.013E+05 -1.855E-10  6.500E-02  2.934E+02  2.935E+02
  1.417E-02  5.050E-01  1.013E+05 -1.855E-10  6.500E-02  2.934E+02  2.930E+02
  4.252E-02  0.000E+00  1.019E+05  1.063E-07  6.500E-02  2.930E+02  2.930E+02
  4.252E-02  3.156E-03  1.019E+05  1.063E-07  6.502E-02  2.930E+02  2.930E+02
  4.252E-02  9.469E-03  1.019E+05  8.497E-08  6.500E-02  2.930E+02  2.930E+02
  4.252E-02  1.578E-02  1.019E+05  7.090E-08  6.500E-02  2.930E+02  2.930E+02
  4.252E-02  2.209E-02  1.019E+05  5.884E-08  6.500E-02  2.930E+02  2.930E+02
  4.252E-02  2.841E-02  1.019E+05  4.900E-08  6.500E-02  2.930E+02  2.930E+02
  4.252E-02  3.472E-02  1.019E+05  4.087E-08  6.499E-02  2.931E+02  2.931E+02
  4.252E-02  4.103E-02  1.019E+05  3.417E-08  6.499E-02  2.931E+02  2.931E+02
  4.252E-02  4.734E-02  1.019E+05  2.864E-08  6.500E-02  2.932E+02  2.931E+02
  4.252E-02  5.366E-02  1.018E+05  2.405E-08  6.500E-02  2.933E+02  2.932E+02
  4.252E-02  5.997E-02  1.018E+05  2.022E-08  6.500E-02  2.934E+02  2.933E+02
  4.252E-02  6.628E-02  1.018E+05  1.702E-08  6.500E-02  2.936E+02  2.935E+02
  4.252E-02  7.259E-02  1.018E+05  1.435E-08  6.500E-02  2.939E+02  2.937E+02
  4.252E-02  7.891E-02  1.018E+05  1.212E-08  6.500E-02  2.943E+02  2.941E+02
  4.252E-02  8.522E-02  1.018E+05  1.026E-08  6.499E-02  2.949E+02  2.945E+02
  4.252E-02  9.153E-02  1.018E+05  8.735E-09  6.500E-02  2.956E+02  2.952E+02
  4.252E-02  9.784E-02  1.018E+05  7.469E-09  6.501E-02  2.967E+02  2.961E+02
  4.252E-02  1.042E-01  1.018E+05  6.408E-09  6.500E-02  2.981E+02  2.973E+02
  4.252E-02  1.105E-01  1.018E+05  5.559E-09  6.500E-02  2.999E+02  2.988E+02
  4.252E-02  1.168E-01  1.018E+05  4.897E-09  6.499E-02  3.022E+02  3.008E+02
  4.252E-02  1.231E-01  1.018E+05  4.379E-09  6.499E-02  3.050E+02  3.033E+02
  4.252E-02  1.294E-01  1.018E+05  3.959E-09  6.499E-02  3.084E+02  3.064E+02
  4.252E-02  1.357E-01  1.018E+05  3.652E-09  6.499E-02  3.125E+02  3.100E+02
  4.252E-02  1.420E-01  1.017E+05  3.463E-09  6.499E-02  3.173E+02  3.144E+02
  4.252E-02  1.483E-01  1.017E+05  3.334E-09  6.498E-02  3.227E+02  3.194E+02
  4.252E-02  1.547E-01  1.017E+05  3.307E-09  6.498E-02  3.288E+02  3.250E+02
  4.252E-02  1.610E-01  1.017E+05  3.360E-09  6.499E-02  3.354E+02  3.312E+02
  4.252E-02  1.673E-01  1.017E+05  3.448E-09  6.498E-02  3.425E+02  3.380E+02
  4.252E-02  1.736E-01  1.017E+05  3.570E-09  6.497E-02  3.500E+02  3.451E+02
  4.252E-02  1.799E-01  1.017E+05  3.744E-09  6.498E-02  3.576E+02  3.526E+02
  4.252E-02  1.862E-01  1.017E+05  3.948E-09  6.498E-02  3.652E+02  3.601E+02
  4.252E-02  1.925E-01  1.017E+05  4.130E-09  6.498E-02  3.725E+02  3.675E+02
  4.252E-02  1.988E-01  1.017E+05  4.291E-09  6.498E-02  3.795E+02  3.746E+02
  4.252E-02  2.052E-01  1.017E+05  4.454E-09  6.498E-02  3.859E+02  3.813E+02
  4.252E-02  2.115E-01  1.017E+05  4.573E-09  6.499E-02  3.915E+02  3.874E+02
  4.252E-02  2.178E-01  1.017E+05  4.622E-09  6.499E-02  3.962E+02  3.926E+02
  4.252E-02  2.241E-01  1.017E+05  4.622E-09  6.499E-02  3.999E+02  3.969E+02
  4.252E-02  2.304E-01  1.016E+05  4.549E-09  6.499E-02  4.025E+02  4.002E+02
  4.252E-02  2.367E-01  1.016E+05  4.394E-09  6.500E-02  4.040E+02  4.024E+02
  4.252E-02  2.430E-01  1.016E+05  4.178E-09  6.500E-02  4.043E+02  4.035E+02
  4.252E-02  2.493E-01  1.016E+05  3.884E-09  6.500E-02  4.035E+02  4.035E+02
  4.252E-02  2.557E-01  1.016E+05  3.510E-09  6.500E-02  4.017E+02  4.024E+02
  4.252E-02  2.620E-01  1.016E+05  3.094E-09  6.500E-02  3.989E+02  4.003E+02
  4.252E-02  2.683E-01  1.016E+05  2.644E-09  6.501E-02  3.952E+02  3.973E+02
  4.252E-02  2.746E-01  1.016E+05  2.152E-09  6.502E-02  3.909E+02  3.934E+02
  4.252E-02  2.809E-01  1.016E+05  1.644E-09  6.502E-02  3.859E+02  3.889E+02
  4.252E-02  2.872E-01  1.016E+05  1.159E-09  6.500E-02  3.804E+02  3.838E+02
  4.252E-02  2.935E-01  1.016E+05  6.998E-10  6.500E-02  3.746E+02  3.783E+02
  4.252E-02  2.998E-01  1.016E+05  3.146E-10  6.502E-02  3.687E+02  3.726E+02
  4.252E-02  3.062E-01  1.016E+05 -8.514E-12  6.503E-02  3.626E+02  3.666E+02
  4.252E-02  3.125E-01  1.015E+05 -2.585E-10  6.501E-02  3.566E+02  3.606E+02
  4.252E-02  3.188E-01  1.015E+05 -4.096E-10  6.500E-02  3.507E+02  3.547E+02
  4.252E-02  3.251E-01  1.015E+05 -4.590E-10  6.502E-02  3.450E+02  3.489E+02
  4.252E-02  3.314E-01  1.015E+05 -4.059E-10  6.503E-02  3.395E+02  3.433E+02
  4.252E-02  3.377E-01  1.015E+05 -3.248E-10  6.502E-02  3.344E+02  3.380E+02
  4.252E-02  3.440E-01  1.015E+05 -3.520E-10  6.501E-02  3.296E+02  3.330E+02
  4.252E-02  3.503E-01  1.015E+05 -5.864E-10  6.501E-02  3.252E+02  3.283E+02
  4.252E-02  3.567E-01  1.015E+05 -9.681E-10  6.501E-02  3.211E+02  3.240E+02
  4.252E-02  3.630E-01  1.015E+05 -1.350E-09  6.502E-02  3.174E+02  3.201E+02
  4.252E-02  3.693E-01  1.015E+05 -1.666E-09  6.501E-02  3.141E+02  3.165E+02
  4.252E-02  3.756E-01  1.015E+05 -1.863E-09  6.500E-02  3.111E+02  3.133E+02
  4.252E-02  3.819E-01  1.015E+05 -1.945E-09  6.501E-02  3.085E+02  3.105E+02
  4.252E-02  3.882E-01  1.015E+05 -1.979E-09  6.500E-02  3.062E+02  3.079E+02
  4.252E-02  3.945E-01  1.015E+05 -1.973E-09  6.500E-02  3.042E+02  3.057E+02
  4.252E-02  4.008E-01  1.014E+05 -1.920E-09  6.501E-02  3.025E+02  3.038E+02
  4.252E-02  4.072E-01  1.014E+05 -1.849E-09  6.501E-02  3.009E+02  3.021E+02
  4.252E-02  4.135E-01  1.014E+05 -1.752E-09  6.500E-02  2.996E+02  3.006E+02
  4.252E-02  4.198E-01  1.014E+05 -1.630E-09  6.501E-02  2.985E+02  2.994E+02
  4.252E-02  4.261E-01  1.014E+05 -1.500E-09  6.501E-02  2.976E+02  2.983E+02
  4.252E-02  4.324E-01  1.014E+05 -1.384E-09  6.500E-02  2.968E+02  2.974E+02
  4.252E-02  4.387E-01  1.014E+05 -1.264E-09  6.499E-02  2.961E+02  2.967E+02
  4.252E-02  4.450E-01  1.014E+05 -1.137E-09  6.500E-02  2.956E+02  2.960E+02
  4.252E-02  4.513E-01  1.014E+05 -1.022E-09  6.501E-02  2.951E+02  2.955E+02
  4.252E-02  4.577E-01  1.014E+05 -9.210E-10  6.500E-02  2.947E+02  2.950E+02
  4.252E-02  4.640E-01  1.014E+05 -8.162E-10  6.500E-02  2.944E+02  2.947E+02
  4.252E-02  4.703E-01  1.014E+05 -7.360E-10  6.500E-02  2.941E+02  2.944E+02
  4.252E-02  4.766E-01  1.014E+05 -6.524E-10  6.500E-02  2.939E+02  2.941E+02
  4.252E-02  4.829E-01  1.014E+05 -5.418E-10  6.500E-02  2.938E+02  2.939E+02
  4.252E-02  4.892E-01  1.013E+05 -4.439E-10  6.500E-02  2.936E+02  2.937E+02
  4.252E-02  4.955E-01  1.013E+05 -3.459E-10  6.500E-02  2.935E+02  2.936E+02
  4.252E-02  5.018E-01  1.013E+05 -2.742E-10  6.500E-02  2.934E+02  2.935E+02
  4.252E-02  5.050E-01  1.013E+05 -2.742E-10  6.500E-02  2.934E+02  2.930E+02
  7.087E-02  0.000E+00  1.019E+05  3.690E-08  6.500E-02  2.930E+02  2.930E+02
  7.087E-02  3.156E-03  1.019E+05  3.690E-08  6.502E-02  2.930E+02  2.930E+02
  7.087E-02  9.469E-03  1.019E+05  3.544E-08  6.500E-02  2.930E+02  2.930E+02
  7.087E-02  1.578E-02  1.019E+05  3.332E-08  6.500E-02  2.930E+02  2.930E+02
  7.087E-02  2.209E-02  1.019E+05  3.075E-08  6.500E-02  2.930E+02  2.930E+02
  7.087E-02  2.841E-02  1.019E+05  2.803E-08  6.500E-02  2.930E+02  2.930E+02
  7.087E-02  3.472E-02  1.019E+05  2.527E-08  6.499E-02  2.931E+02  2.931E+02
  7.087E-02  4.103E-02  1.019E+05  2.260E-08  6.499E-02  2.931E+02  2.931E+02
  7.087E-02  4.734E-02  1.019E+05  2.009E-08  6.500E-02  2.932E+02  2.931E+02
  7.087E-02  5.366E-02  1.018E+05  1.775E-08  6.500E-02  2.933E+02  2.932E+02
  7.087E-02  5.997E-02  1.018E+05  1.558E-08  6.500E-02  2.934E+02  2.933E+02
  7.087E-02  6.628E-02  1.018E+05  1.361E-08  6.500E-02  2.936E+02  2.935E+02
  7.087E-02  7.259E-02  1.018E+05  1.188E-08  6.500E-02  2.939E+02  2.937E+02
  7.087E-02  7.891E-02  1.018E+05  1.033E-08  6.500E-02  2.943E+02  2.941E+02
  7.087E-02  8.522E-02  1.018E+05  8.938E-09  6.499E-02  2.949E+02  2.945E+02
  7.087E-02  9.153E-02  1.018E+05  7.755E-09  6.500E-02  2.956E+02  2.952E+02
  7.087E-02  9.784E-02  1.018E+05  6.714E-09  6.501E-02  2.967E+02  2.961E+02
  7.087E-02  1.042E-01  1.018E+05  5.824E-09  6.500E-02  2.981E+02  2.973E+02
  7.087E-02  1.105E-01  1.018E+05  5.083E-09  6.500E-02  2.999E+02  2.988E+02
  7.087E-02  1.168E-01  1.018E+05  4.459E-09  6.499E-02  3.022E+02  3.008E+02
  7.087E-02  1.231E-01  1.018E+05  3.939E-09  6.499E-02  3.050E+02  3.033E+02
  7.087E-02  1.294E-01  1.018E+05  3.498E-09  6.499E-02  3.084E+02  3.064E+02
  7.087E-02  1.357E-01  1.018E+05  3.130E-09  6.499E-02  3.125E+02  3.100E+02
  7.087E-02  1.420E-01  1.017E+05  2.845E-09  6.499E-02  3.173E+02  3.144E+02
  7.087E-02  1.483E-01  1.017E+05  2.611E-09  6.498E-02  3.227E+02  3.194E+02
  7.087E-02  1.547E-01  1.017E+05  2.423E-09  6.498E-02  3.288E+02  3.250E+02
  7.087E-02  1.610E-01  1.017E+05  2.282E-09  6.499E-02  3.354E+02  3.312E+02
  7.087E-02  1.673E-01  1.017E+05  2.181E-09  6.498E-02  3.425E+02  3.380E+02
  7.087E-02  1.736E-01  1.017E+05  2.113E-09  6.497E-02  3.500E+02  3.451E+02
  7.087E-02  1.799E-01  1.017E+05  2.058E-09  6.498E-02  3.576E+02  3.526E+02
  7.087E-02  1.862E-01  1.017E+05  2.019E-09  6.498E-02  3.652E+02  3.601E+02
  7.087E-02  1.925E-01  1.017E+05  1.973E-09  6.498E-02  3.725E+02  3.675E+02
  7.087E-02  1.988E-01  1.017E+05  1.923E-09  6.498E-02  3.795E+02  3.746E+02
  7.087E-02  2.052E-01  1.017E+05  1.854E-09  6.498E-02  3.859E+02  3.813E+02
  7.087E-02  2.115E-01  1.017E+05  1.768E-09  6.499E-02  3.915E+02  3.874E+02
  7.087E-02  2.178E-01  1.017E+05  1.676E-09  6.499E-02  3.962E+02  3.926E+02
  7.087E-02  2.241E-01  1.017E+05  1.547E-09  6.499E-02  3.999E+02  3.969E+02
  7.087E-02  2.304E-01  1.016E+05  1.389E-09  6.499E-02  4.025E+02  4.002E+02
  7.087E-02  2.367E-01  1.016E+05  1.225E-09  6.500E-02  4.040E+02  4.025E+02
  7.087E-02  2.430E-01  1.016E+05  1.055E-09  6.500E-02  4.043E+02  4.035E+02
  7.087E-02  2.493E-01  1.016E+05  8.685E-10  6.500E-02  4.035E+02  4.035E+02
  7.087E-02  2.557E-01  1.016E+05  6.421E-10  6.500E-02  4.017E+02  4.024E+02
  7.087E-02  2.620E-01  1.016E+05  3.995E-10  6.500E-02  3.989E+02  4.003E+02
  7.087E-02  2.683E-01  1.016E+05  1.975E-10  6.501E-02  3.952E+02  3.973E+02
  7.087E-02  2.746E-01  1.016E+05  3.078E-11  6.502E-02  3.909E+02  3.934E+02
  7.087E-02  2.809E-01  1.016E+05 -1.120E-10  6.502E-02  3.859E+02  3.889E+02
  7.087E-02  2.872E-01  1.016E+05 -2.296E-10  6.500E-02  3.804E+02  3.838E+02
  7.087E-02  2.935E-01  1.016E+05 -3.038E-10  6.500E-02  3.746E+02  3.784E+02
  7.087E-02  2.998E-01  1.016E+05 -2.978E-10  6.502E-02  3.687E+02  3.726E+02
  7.087E-02  3.062E-01  1.016E+05 -1.785E-10  6.503E-02  3.626E+02  3.666E+02
  7.087E-02  3.125E-01  1.015E+05  5.822E-11  6.502E-02  3.566E+02  3.607E+02
  7.087E-02  3.188E-01  1.015E+05  5.394E-10  6.500E-02  3.507E+02  3.547E+02
  7.087E-02  3.251E-01  1.015E+05  1.283E-09  6.502E-02  3.450E+02  3.489E+02
  7.087E-02  3.314E-01  1.015E+05  2.770E-09  6.503E-02  3.395E+02  3.433E+02
  7.087E-02  3.377E-01  1.015E+05  4.929E-09  6.502E-02  3.344E+02  3.380E+02
  7.087E-02  3.440E-01  1.015E+05  6.041E-09  6.501E-02  3.296E+02  3.330E+02
  7.087E-02  3.503E-01  1.015E+05  5.107E-09  6.501E-02  3.252E+02  3.283E+02
  7.087E-02  3.567E-01  1.015E+05  3.131E-09  6.501E-02  3.211E+02  3.240E+02
  7.087E-02  3.630E-01  1.015E+05  1.815E-09  6.502E-02  3.174E+02  3.201E+02
  7.087E-02  3.693E-01  1.015E+05  1.226E-09  6.501E-02  3.141E+02  3.165E+02
  7.087E-02  3.756E-01  1.015E+05  8.390E-10  6.500E-02  3.111E+02  3.133E+02
  7.087E-02  3.819E-01  1.015E+05  6.745E-10  6.501E-02  3.085E+02  3.105E+02
  7.087E-02  3.882E-01  1.015E+05  6.120E-10  6.500E-02  3.062E+02  3.079E+02
  7.087E-02  3.945E-01  1.015E+05  6.041E-10  6.500E-02  3.042E+02  3.057E+02
  7.087E-02  4.008E-01  1.014E+05  6.035E-10  6.501E-02  3.025E+02  3.038E+02
  7.087E-02  4.072E-01  1.014E+05  6.037E-10  6.501E-02  3.009E+02  3.021E+02
  7.087E-02  4.135E-01  1.014E+05  6.186E-10  6.500E-02  2.996E+02  3.006E+02
  7.087E-02  4.198E-01  1.014E+05  6.443E-10  6.501E-02  2.985E+02  2.994E+02
  7.087E-02  4.261E-01  1.014E+05  6.657E-10  6.501E-02  2.976E+02  2.983E+02
  7.087E-02  4.324E-01  1.014E+05  6.623E-10  6.500E-02  2.968E+02  2.974E+02
  7.087E-02  4.387E-01  1.014E+05  6.514E-10  6.499E-02  2.961E+02  2.967E+02
  7.087E-02  4.450E-01  1.014E+05  6.315E-10  6.500E-02  2.956E+02  2.960E+02
  7.087E-02  4.513E-01  1.014E+05  5.942E-10  6.501E-02  2.951E+02  2.955E+02
  7.087E-02  4.577E-01  1.014E+05  5.400E-10  6.500E-02  2.947E+02  2.950E+02
  7.087E-02  4.640E-01  1.014E+05  4.794E-10  6.500E-02  2.944E+02  2.947E+02
  7.087E-02  4.703E-01  1.014E+05  4.111E-10  6.500E-02  2.941E+02  2.944E+02
  7.087E-02  4.766E-01  1.014E+05  3.417E-10  6.500E-02  2.939E+02  2.941E+02
  7.087E-02  4.829E-01  1.014E+05  2.685E-10  6.500E-02  2.938E+02  2.939E+02
  7.087E-02  4.892E-01  1.013E+05  2.004E-10  6.500E-02  2.936E+02  2.937E+02
  7.087E-02  4.955E-01  1.013E+05  1.335E-10  6.500E-02  2.935E+02  2.936E+02
  7.087E-02  5.018E-01  1.013E+05  1.011E-10  6.500E-02  2.934E+02  2.935E+02
  7.087E-02  5.050E-01  1.013E+05  1.011E-10  6.500E-02  2.934E+02  2.930E+02
  9.922E-02  0.000E+00  1.019E+05  1.786E-08  6.500E-02  2.930E+02  2.930E+02
  9.922E-02  3.156E-03  1.019E+05  1.786E-08  6.502E-02  2.930E+02  2.930E+02
  9.922E-02  9.469E-03  1.019E+05  1.736E-08  6.500E-02  2.930E+02  2.930E+02
  9.922E-02  1.578E-02  1.019E+05  1.657E-08  6.500E-02  2.930E+02  2.930E+02
  9.922E-02  2.209E-02  1.019E+05  1.556E-08  6.500E-02  2.930E+02  2.930E+02
  9.922E-02  2.841E-02  1.019E+05  1.443E-08  6.500E-02  2.930E+02  2.930E+02
  9.922E-02  3.472E-02  1.019E+05  1.321E-08  6.499E-02  2.931E+02  2.931E+02
  9.922E-02  4.103E-02  1.019E+05  1.194E-08  6.499E-02  2.931E+02  2.931E+02
  9.922E-02  4.734E-02  1.019E+05  1.069E-08  6.500E-02  2.932E+02  2.931E+02
  9.922E-02  5.366E-02  1.018E+05  9.499E-09  6.500E-02  2.933E+02  2.932E+02
  9.922E-02  5.997E-02  1.018E+05  8.377E-09  6.500E-02  2.934E+02  2.933E+02
  9.922E-02  6.628E-02  1.018E+05  7.326E-09  6.500E-02  2.936E+02  2.935E+02
  9.922E-02  7.259E-02  1.018E+05  6.376E-09  6.500E-02  2.939E+02  2.937E+02
  9.922E-02  7.891E-02  1.018E+05  5.488E-09  6.500E-02  2.943E+02  2.941E+02
  9.922E-02  8.522E-02  1.018E+05  4.668E-09  6.499E-02  2.949E+02  2.945E+02
  9.922E-02  9.153E-02  1.018E+05  3.962E-09  6.500E-02  2.956E+02  2.952E+02
  9.922E-02  9.784E-02  1.018E+05  3.319E-09  6.501E-02  2.967E+02  2.961E+02
  9.922E-02  1.042E-01  1.018E+05  2.737E-09  6.500E-02  2.981E+02  2.973E+02
  9.922E-02  1.105E-01  1.018E+05  2.210E-09  6.500E-02  2.999E+02  2.988E+02
  9.922E-02  1.168E-01  1.018E+05  1.762E-09  6.499E-02  3.022E+02  3.008E+02
  9.922E-02  1.231E-01  1.018E+05  1.371E-09  6.499E-02  3.050E+02  3.033E+02
  9.922E-02  1.294E-01  1.018E+05  1.025E-09  6.499E-02  3.084E+02  3.064E+02
  9.922E-02  1.357E-01  1.018E+05  7.045E-10  6.499E-02  3.125E+02  3.100E+02
  9.922E-02  1.420E-01  1.017E+05  4.003E-10  6.499E-02  3.173E+02  3.144E+02
  9.922E-02  1.483E-01  1.017E+05  1.108E-10  6.498E-02  3.227E+02  3.194E+02
  9.922E-02  1.547E-01  1.017E+05 -1.675E-10  6.498E-02  3.288E+02  3.250E+02
  9.922E-02  1.610E-01  1.017E+05 -4.027E-10  6.499E-02  3.354E+02  3.312E+02
  9.922E-02  1.673E-01  1.017E+05 -6.372E-10  6.498E-02  3.425E+02  3.380E+02
  9.922E-02  1.736E-01  1.017E+05 -8.683E-10  6.497E-02  3.500E+02  3.451E+02
  9.922E-02  1.799E-01  1.017E+05 -1.083E-09  6.498E-02  3.576E+02  3.526E+02
  9.922E-02  1.862E-01  1.017E+05 -1.278E-09  6.498E-02  3.652E+02  3.601E+02
  9.922E-02  1.925E-01  1.017E+05 -1.432E-09  6.498E-02  3.725E+02  3.675E+02
  9.922E-02  1.988E-01  1.017E+05 -1.606E-09  6.498E-02  3.795E+02  3.746E+02
  9.922E-02  2.052E-01  1.017E+05 -1.770E-09  6.498E-02  3.859E+02  3.813E+02
  9.922E-02  2.115E-01  1.017E+05 -1.895E-09  6.499E-02  3.915E+02  3.874E+02
  9.922E-02  2.178E-01  1.017E+05 -1.986E-09  6.499E-02  3.962E+02  3.926E+02
  9.922E-02  2.241E-01  1.017E+05 -2.063E-09  6.499E-02  3.999E+02  3.969E+02
  9.922E-02  2.304E-01  1.016E+05 -2.108E-09  6.499E-02  4.025E+02  4.002E+02
  9.922E-02  2.367E-01  1.016E+05 -2.115E-09  6.500E-02  4.040E+02  4.025E+02
  9.922E-02  2.430E-01  1.016E+05 -2.091E-09  6.500E-02  4.043E+02  4.035E+02
  9.922E-02  2.493E-01  1.016E+05 -2.005E-09  6.500E-02  4.035E+02  4.035E+02
  9.922E-02  2.557E-01  1.016E+05 -1.897E-09  6.500E-02  4.017E+02  4.024E+02
  9.922E-02  2.620E-01  1.016E+05 -1.766E-09  6.500E-02  3.989E+02  4.003E+02
  9.922E-02  2.683E-01  1.016E+05 -1.569E-09  6.501E-02  3.952E+02  3.973E+02
  9.922E-02  2.746E-01  1.016E+05 -1.303E-09  6.502E-02  3.909E+02  3.934E+02
  9.922E-02  2.809E-01  1.016E+05 -9.971E-10  6.502E-02  3.859E+02  3.889E+02
  9.922E-02  2.872E-01  1.016E+05 -6.685E-10  6.500E-02  3.804E+02  3.838E+02
  9.922E-02  2.935E-01  1.016E+05 -2.915E-10  6.500E-02  3.746E+02  3.784E+02
  9.922E-02  2.998E-01  1.016E+05  1.758E-10  6.502E-02  3.687E+02  3.726E+02
  9.922E-02  3.062E-01  1.016E+05  7.774E-10  6.503E-02  3.626E+02  3.666E+02
  9.922E-02  3.125E-01  1.015E+05  1.512E-09  6.501E-02  3.566E+02  3.606E+02
  9.922E-02  3.188E-01  1.015E+05  2.580E-09  6.500E-02  3.507E+02  3.547E+02
  9.922E-02  3.251E-01  1.015E+05  4.047E-09  6.502E-02  3.450E+02  3.489E+02
  9.922E-02  3.314E-01  1.015E+05  6.726E-09  6.503E-02  3.395E+02  3.433E+02
  9.922E-02  3.377E-01  1.015E+05  1.096E-08  6.502E-02  3.344E+02  3.380E+02