VARIABLES="XP","YP","P","U","V","TS","TF"
ZONE T="Zone 001"I=    82 J=    12 F=POINT
  0.000E+00  0.000E+00  1.019E+05  0.000E+00  0.000E+00  2.930E+02  2.930E+02
  0.000E+00  3.156E-03  1.019E+05  0.000E+00  0.000E+00  2.930E+02  2.930E+02
  0.000E+00  9.469E-03  1.019E+05  0.000E+00  0.000E+00  2.931E+02  2.931E+02
  0.000E+00  1.578E-02  1.019E+05  0.000E+00  0.000E+00  2.932E+02  2.932E+02
  0.000E+00  2.209E-02  1.019E+05  0.000E+00  0.000E+00  2.934E+02  2.933E+02
  0.000E+00  2.841E-02  1.019E+05  0.000E+00  0.000E+00  2.937E+02  2.935E+02
  0.000E+00  3.472E-02  1.019E+05  0.000E+00  0.000E+00  2.941E+02  2.939E+02
  0.000E+00  4.103E-02  1.019E+05  0.000E+00  0.000E+00  2.948E+02  2.944E+02
  0.000E+00  4.734E-02  1.019E+05  0.000E+00  0.000E+00  2.958E+02  2.953E+02
  0.000E+00  5.366E-02  1.018E+05  0.000E+00  0.000E+00  2.974E+02  2.966E+02
  0.000E+00  5.997E-02  1.018E+05  0.000E+00  0.000E+00  2.999E+02  2.986E+02
  0.000E+00  6.628E-02  1.018E+05  0.000E+00  0.000E+00  3.035E+02  3.015E+02
  0.000E+00  7.259E-02  1.018E+05  0.000E+00  0.000E+00  3.089E+02  3.060E+02
  0.000E+00  7.891E-02  1.018E+05  0.000E+00  0.000E+00  3.168E+02  3.125E+02
  0.000E+00  8.522E-02  1.018E+05  0.000E+00  0.000E+00  3.283E+02  3.220E+02
  0.000E+00  9.153E-02  1.018E+05  0.000E+00  0.000E+00  3.445E+02  3.355E+02
  0.000E+00  9.784E-02  1.018E+05  0.000E+00  0.000E+00  3.657E+02  3.536E+02
  0.000E+00  1.042E-01  1.018E+05  0.000E+00  0.000E+00  3.906E+02  3.757E+02
  0.000E+00  1.105E-01  1.018E+05  0.000E+00  0.000E+00  4.159E+02  3.996E+02
  0.000E+00  1.168E-01  1.018E+05  0.000E+00  0.000E+00  4.386E+02  4.228E+02
  0.000E+00  1.231E-01  1.018E+05  0.000E+00  0.000E+00  4.570E+02  4.432E+02
  0.000E+00  1.294E-01  1.018E+05  0.000E+00  0.000E+00  4.700E+02  4.591E+02
  0.000E+00  1.357E-01  1.018E+05  0.000E+00  0.000E+00  4.772E+02  4.698E+02
  0.000E+00  1.420E-01  1.017E+05  0.000E+00  0.000E+00  4.788E+02  4.750E+02
  0.000E+00  1.483E-01  1.017E+05  0.000E+00  0.000E+00  4.751E+02  4.750E+02
  0.000E+00  1.547E-01  1.017E+05  0.000E+00  0.000E+00  4.672E+02  4.703E+02
  0.000E+00  1.610E-01  1.017E+05  0.000E+00  0.000E+00  4.559E+02  4.616E+02
  0.000E+00  1.673E-01  1.017E+05  0.000E+00  0.000E+00  4.422E+02  4.500E+02
  0.000E+00  1.736E-01  1.017E+05  0.000E+00  0.000E+00  4.271E+02  4.363E+02
  0.000E+00  1.799E-01  1.017E+05  0.000E+00  0.000E+00  4.115E+02  4.215E+02
  0.000E+00  1.862E-01  1.017E+05  0.000E+00  0.000E+00  3.960E+02  4.063E+02
  0.000E+00  1.925E-01  1.017E+05  0.000E+00  0.000E+00  3.812E+02  3.913E+02
  0.000E+00  1.988E-01  1.017E+05  0.000E+00  0.000E+00  3.675E+02  3.771E+02
  0.000E+00  2.052E-01  1.017E+05  0.000E+00  0.000E+00  3.551E+02  3.640E+02
  0.000E+00  2.115E-01  1.017E+05  0.000E+00  0.000E+00  3.441E+02  3.522E+02
  0.000E+00  2.178E-01  1.017E+05  0.000E+00  0.000E+00  3.347E+02  3.418E+02
  0.000E+00  2.241E-01  1.017E+05  0.000E+00  0.000E+00  3.266E+02  3.327E+02
  0.000E+00  2.304E-01  1.016E+05  0.000E+00  0.000E+00  3.198E+02  3.251E+02
  0.000E+00  2.367E-01  1.016E+05  0.000E+00  0.000E+00  3.142E+02  3.186E+02
  0.000E+00  2.430E-01  1.016E+05  0.000E+00  0.000E+00  3.097E+02  3.133E+02
  0.000E+00  2.493E-01  1.016E+05  0.000E+00  0.000E+00  3.060E+02  3.090E+02
  0.000E+00  2.557E-01  1.016E+05  0.000E+00  0.000E+00  3.031E+02  3.055E+02
  0.000E+00  2.620E-01  1.016E+05  0.000E+00  0.000E+00  3.007E+02  3.027E+02
  0.000E+00  2.683E-01  1.016E+05  0.000E+00  0.000E+00  2.989E+02  3.004E+02
  0.000E+00  2.746E-01  1.016E+05  0.000E+00  0.000E+00  2.975E+02  2.987E+02
  0.000E+00  2.809E-01  1.016E+05  0.000E+00  0.000E+00  2.965E+02  2.974E+02
  0.000E+00  2.872E-01  1.016E+05  0.000E+00  0.000E+00  2.956E+02  2.963E+02
  0.000E+00  2.935E-01  1.016E+05  0.000E+00  0.000E+00  2.950E+02  2.955E+02
  0.000E+00  2.998E-01  1.016E+05  0.000E+00  0.000E+00  2.945E+02  2.949E+02
  0.000E+00  3.062E-01  1.016E+05  0.000E+00  0.000E+00  2.942E+02  2.945E+02
  0.000E+00  3.125E-01  1.015E+05  0.000E+00  0.000E+00  2.939E+02  2.941E+02
  0.000E+00  3.188E-01  1.015E+05  0.000E+00  0.000E+00  2.937E+02  2.939E+02
  0.000E+00  3.251E-01  1.015E+05  0.000E+00  0.000E+00  2.935E+02  2.937E+02
  0.000E+00  3.314E-01  1.015E+05  0.000E+00  0.000E+00  2.934E+02  2.935E+02
  0.000E+00  3.377E-01  1.015E+05  0.000E+00  0.000E+00  2.933E+02  2.934E+02
  0.000E+00  3.440E-01  1.015E+05  0.000E+00  0.000E+00  2.933E+02  2.933E+02
  0.000E+00  3.503E-01  1.015E+05  0.000E+00  0.000E+00  2.932E+02  2.933E+02
  0.000E+00  3.567E-01  1.015E+05  0.000E+00  0.000E+00  2.932E+02  2.932E+02
  0.000E+00  3.630E-01  1.015E+05  0.000E+00  0.000E+00  2.931E+02  2.932E+02
  0.000E+00  3.693E-01  1.015E+05  0.000E+00  0.000E+00  2.931E+02  2.931E+02
  0.000E+00  3.756E-01  1.015E+05  0.000E+00  0.000E+00  2.931E+02  2.931E+02
  0.000E+00  3.819E-01  1.015E+05  0.000E+00  0.000E+00  2.931E+02  2.931E+02
  0.000E+00  3.882E-01  1.015E+05  0.000E+00  0.000E+00  2.931E+02  2.931E+02
  0.000E+00  3.945E-01  1.015E+05  0.000E+00  0.000E+00  2.931E+02  2.931E+02
  0.000E+00  4.008E-01  1.014E+05  0.000E+00  0.000E+00  2.931E+02  2.931E+02
  0.000E+00  4.072E-01  1.014E+05  0.000E+00  0.000E+00  2.931E+02  2.931E+02
  0.000E+00  4.135E-01  1.014E+05  0.000E+00  0.000E+00  2.930E+02  2.931E+02
  0.000E+00  4.198E-01  1.014E+05  0.000E+00  0.000E+00  2.930E+02  2.930E+02
  0.000E+00  4.261E-01  1.014E+05  0.000E+00  0.000E+00  2.930E+02  2.930E+02
  0.000E+00  4.324E-01  1.014E+05  0.000E+00  0.000E+00  2.930E+02  2.930E+02
  0.000E+00  4.387E-01  1.014E+05  0.000E+00  0.000E+00  2.930E+02  2.930E+02
  0.000E+00  4.450E-01  1.014E+05  0.000E+00  0.000E+00  2.930E+02  2.930E+02
  0.000E+00  4.513E-01  1.014E+05  0.000E+00  0.000E+00  2.930E+02  2.930E+02
  0.000E+00  4.577E-01  1.014E+05  0.000E+00  0.000E+00  2.930E+02  2.930E+02
  0.000E+00  4.640E-01  1.014E+05  0.000E+00  0.000E+00  2.930E+02  2.930E+02
  0.000E+00  4.703E-01  1.014E+05  0.000E+00  0.000E+00  2.930E+02  2.930E+02
  0.000E+00  4.766E-01  1.014E+05  0.000E+00  0.000E+00  2.930E+02  2.930E+02
  0.000E+00  4.829E-01  1.014E+05  0.000E+00  0.000E+00  2.930E+02  2.930E+02
  0.000E+00  4.892E-01  1.013E+05  0.000E+00  0.000E+00  2.930E+02  2.930E+02
  0.000E+00  4.955E-01  1.013E+05  0.000E+00  0.000E+00  2.930E+02  2.930E+02
  0.000E+00  5.018E-01  1.013E+05  0.000E+00  0.000E+00  2.930E+02  2.930E+02
  0.000E+00  5.050E-01  1.013E+05  0.000E+00  0.000E+00  2.930E+02  2.930E+02
  1.417E-02  0.000E+00  1.019E+05  7.957E-08  6.500E-02  2.930E+02  2.930E+02
  1.417E-02  3.156E-03  1.019E+05  7.957E-08  6.498E-02  2.930E+02  2.930E+02
  1.417E-02  9.469E-03  1.019E+05  5.871E-08  6.500E-02  2.931E+02  2.931E+02
  1.417E-02  1.578E-02  1.019E+05  4.446E-08  6.500E-02  2.932E+02  2.932E+02
  1.417E-02  2.209E-02  1.019E+05  3.147E-08  6.500E-02  2.934E+02  2.933E+02
  1.417E-02  2.841E-02  1.019E+05  1.655E-08  6.500E-02  2.937E+02  2.935E+02
  1.417E-02  3.472E-02  1.019E+05  7.572E-09  6.499E-02  2.941E+02  2.939E+02
  1.417E-02  4.103E-02  1.019E+05 -3.847E-08  6.500E-02  2.948E+02  2.944E+02
  1.417E-02  4.734E-02  1.019E+05 -2.689E-10  6.500E-02  2.958E+02  2.953E+02
  1.417E-02  5.366E-02  1.018E+05  4.667E-10  6.500E-02  2.974E+02  2.966E+02
  1.417E-02  5.997E-02  1.018E+05  5.176E-09  6.500E-02  2.999E+02  2.986E+02
  1.417E-02  6.628E-02  1.018E+05  5.840E-09  6.499E-02  3.035E+02  3.015E+02
  1.417E-02  7.259E-02  1.018E+05  5.959E-09  6.499E-02  3.089E+02  3.060E+02
  1.417E-02  7.891E-02  1.018E+05  5.448E-09  6.498E-02  3.168E+02  3.125E+02
  1.417E-02  8.522E-02  1.018E+05  4.810E-09  6.497E-02  3.283E+02  3.220E+02
  1.417E-02  9.153E-02  1.018E+05  4.268E-09  6.496E-02  3.445E+02  3.355E+02
  1.417E-02  9.784E-02  1.018E+05  3.937E-09  6.495E-02  3.657E+02  3.536E+02
  1.417E-02  1.042E-01  1.018E+05  3.872E-09  6.493E-02  3.906E+02  3.757E+02
  1.417E-02  1.105E-01  1.018E+05  4.124E-09  6.493E-02  4.159E+02  3.996E+02
  1.417E-02  1.168E-01  1.018E+05  4.672E-09  6.494E-02  4.386E+02  4.228E+02
  1.417E-02  1.231E-01  1.018E+05  5.480E-09  6.495E-02  4.570E+02  4.432E+02
  1.417E-02  1.294E-01  1.018E+05  6.498E-09  6.496E-02  4.700E+02  4.591E+02
  1.417E-02  1.357E-01  1.018E+05  7.604E-09  6.498E-02  4.772E+02  4.698E+02
  1.417E-02  1.420E-01  1.017E+05  8.618E-09  6.498E-02  4.788E+02  4.750E+02
  1.417E-02  1.483E-01  1.017E+05  9.406E-09  6.499E-02  4.751E+02  4.750E+02
  1.417E-02  1.547E-01  1.017E+05  9.787E-09  6.502E-02  4.672E+02  4.703E+02
  1.417E-02  1.610E-01  1.017E+05  9.539E-09  6.503E-02  4.559E+02  4.616E+02
  1.417E-02  1.673E-01  1.017E+05  8.441E-09  6.503E-02  4.422E+02  4.500E+02
  1.417E-02  1.736E-01  1.017E+05  6.176E-09  6.504E-02  4.271E+02  4.363E+02
  1.417E-02  1.799E-01  1.017E+05  2.245E-09  6.504E-02  4.115E+02  4.215E+02
  1.417E-02  1.862E-01  1.017E+05 -4.073E-09  6.503E-02  3.960E+02  4.063E+02
  1.417E-02  1.925E-01  1.017E+05 -1.393E-08  6.504E-02  3.812E+02  3.913E+02
  1.417E-02  1.988E-01  1.017E+05 -2.927E-08  6.504E-02  3.675E+02  3.771E+02
  1.417E-02  2.052E-01  1.017E+05 -5.291E-08  6.503E-02  3.551E+02  3.640E+02
  1.417E-02  2.115E-01  1.017E+05 -9.028E-08  6.503E-02  3.441E+02  3.522E+02
  1.417E-02  2.178E-01  1.017E+05 -1.456E-07  6.503E-02  3.347E+02  3.418E+02
  1.417E-02  2.241E-01  1.017E+05 -2.426E-07  6.503E-02  3.266E+02  3.327E+02
  1.417E-02  2.304E-01  1.016E+05 -3.767E-07  6.502E-02  3.198E+02  3.251E+02
  1.417E-02  2.367E-01  1.016E+05 -3.743E-07  6.501E-02  3.142E+02  3.186E+02
  1.417E-02  2.430E-01  1.016E+05 -2.404E-07  6.501E-02  3.097E+02  3.133E+02
  1.417E-02  2.493E-01  1.016E+05 -1.467E-07  6.500E-02  3.060E+02  3.090E+02
  1.417E-02  2.557E-01  1.016E+05 -9.392E-08  6.500E-02  3.031E+02  3.055E+02
  1.417E-02  2.620E-01  1.016E+05 -5.854E-08  6.501E-02  3.007E+02  3.027E+02
  1.417E-02  2.683E-01  1.016E+05 -3.674E-08  6.501E-02  2.989E+02  3.004E+02
  1.417E-02  2.746E-01  1.016E+05 -2.294E-08  6.500E-02  2.975E+02  2.987E+02
  1.417E-02  2.809E-01  1.016E+05 -1.435E-08  6.499E-02  2.965E+02  2.974E+02
  1.417E-02  2.872E-01  1.016E+05 -9.001E-09  6.500E-02  2.956E+02  2.963E+02
  1.417E-02  2.935E-01  1.016E+05 -5.684E-09  6.500E-02  2.950E+02  2.955E+02
  1.417E-02  2.998E-01  1.016E+05 -3.653E-09  6.500E-02  2.945E+02  2.949E+02
  1.417E-02  3.062E-01  1.016E+05 -2.392E-09  6.500E-02  2.942E+02  2.945E+02
  1.417E-02  3.125E-01  1.015E+05 -1.611E-09  6.500E-02  2.939E+02  2.941E+02
  1.417E-02  3.188E-01  1.015E+05 -1.126E-09  6.500E-02  2.937E+02  2.939E+02
  1.417E-02  3.251E-01  1.015E+05 -8.250E-10  6.500E-02  2.935E+02  2.937E+02
  1.417E-02  3.314E-01  1.015E+05 -6.380E-10  6.500E-02  2.934E+02  2.935E+02
  1.417E-02  3.377E-01  1.015E+05 -5.238E-10  6.500E-02  2.933E+02  2.934E+02
  1.417E-02  3.440E-01  1.015E+05 -4.579E-10  6.500E-02  2.933E+02  2.933E+02
  1.417E-02  3.503E-01  1.015E+05 -4.296E-10  6.500E-02  2.932E+02  2.933E+02
  1.417E-02  3.567E-01  1.015E+05 -4.100E-10  6.500E-02  2.932E+02  2.932E+02
  1.417E-02  3.630E-01  1.015E+05 -3.927E-10  6.500E-02  2.931E+02  2.932E+02
  1.417E-02  3.693E-01  1.015E+05 -3.999E-10  6.500E-02  2.931E+02  2.931E+02
  1.417E-02  3.756E-01  1.015E+05 -4.039E-10  6.500E-02  2.931E+02  2.931E+02
  1.417E-02  3.819E-01  1.015E+05 -4.072E-10  6.500E-02  2.931E+02  2.931E+02
  1.417E-02  3.882E-01  1.015E+05 -4.087E-10  6.500E-02  2.931E+02  2.931E+02
  1.417E-02  3.945E-01  1.015E+05 -4.082E-10  6.500E-02  2.931E+02  2.931E+02
  1.417E-02  4.008E-01  1.014E+05 -4.043E-10  6.500E-02  2.931E+02  2.931E+02
  1.417E-02  4.072E-01  1.014E+05 -3.953E-10  6.500E-02  2.931E+02  2.931E+02
  1.417E-02  4.135E-01  1.014E+05 -3.813E-10  6.500E-02  2.930E+02  2.931E+02
  1.417E-02  4.198E-01  1.014E+05 -3.589E-10  6.501E-02  2.930E+02  2.930E+02
  1.417E-02  4.261E-01  1.014E+05 -3.485E-10  6.500E-02  2.930E+02  2.930E+02
  1.417E-02  4.324E-01  1.014E+05 -3.543E-10  6.500E-02  2.930E+02  2.930E+02
  1.417E-02  4.387E-01  1.014E+05 -3.365E-10  6.500E-02  2.930E+02  2.930E+02
  1.417E-02  4.450E-01  1.014E+05 -2.945E-10  6.500E-02  2.930E+02  2.930E+02
  1.417E-02  4.513E-01  1.014E+05 -2.763E-10  6.500E-02  2.930E+02  2.930E+02
  1.417E-02  4.577E-01  1.014E+05 -2.514E-10  6.500E-02  2.930E+02  2.930E+02
  1.417E-02  4.640E-01  1.014E+05 -2.254E-10  6.500E-02  2.930E+02  2.930E+02
  1.417E-02  4.703E-01  1.014E+05 -1.973E-10  6.500E-02  2.930E+02  2.930E+02
  1.417E-02  4.766E-01  1.014E+05 -1.675E-10  6.500E-02  2.930E+02  2.930E+02
  1.417E-02  4.829E-01  1.014E+05 -1.354E-10  6.500E-02  2.930E+02  2.930E+02
  1.417E-02  4.892E-01  1.013E+05 -9.637E-11  6.500E-02  2.930E+02  2.930E+02
  1.417E-02  4.955E-01  1.013E+05 -7.346E-11  6.500E-02  2.930E+02  2.930E+02
  1.417E-02  5.018E-01  1.013E+05 -5.631E-11  6.500E-02  2.930E+02  2.930E+02
  1.417E-02  5.050E-01  1.013E+05 -5.631E-11  6.500E-02  2.930E+02  2.930E+02
  4.252E-02  0.000E+00  1.019E+05  1.224E-07  6.500E-02  2.930E+02  2.930E+02
  4.252E-02  3.156E-03  1.019E+05  1.224E-07  6.498E-02  2.930E+02  2.930E+02
  4.252E-02  9.469E-03  1.019E+05  1.054E-07  6.500E-02  2.931E+02  2.931E+02
  4.252E-02  1.578E-02  1.019E+05  1.001E-07  6.500E-02  2.932E+02  2.932E+02
  4.252E-02  2.209E-02  1.019E+05  1.048E-07  6.500E-02  2.934E+02  2.933E+02
  4.252E-02  2.841E-02  1.019E+05  1.147E-07  6.500E-02  2.937E+02  2.935E+02
  4.252E-02  3.472E-02  1.019E+05  1.652E-07  6.499E-02  2.941E+02  2.939E+02
  4.252E-02  4.103E-02  1.019E+05  1.682E-07  6.500E-02  2.948E+02  2.944E+02
  4.252E-02  4.734E-02  1.019E+05  1.597E-07  6.500E-02  2.958E+02  2.953E+02
  4.252E-02  5.366E-02  1.018E+05  9.688E-08  6.500E-02  2.974E+02  2.966E+02
  4.252E-02  5.997E-02  1.018E+05  7.036E-08  6.500E-02  2.999E+02  2.986E+02
  4.252E-02  6.628E-02  1.018E+05  4.813E-08  6.499E-02  3.035E+02  3.015E+02
  4.252E-02  7.259E-02  1.018E+05  3.459E-08  6.499E-02  3.089E+02  3.060E+02
  4.252E-02  7.891E-02  1.018E+05  2.524E-08  6.498E-02  3.168E+02  3.125E+02
  4.252E-02  8.522E-02  1.018E+05  1.917E-08  6.497E-02  3.283E+02  3.220E+02
  4.252E-02  9.153E-02  1.018E+05  1.530E-08  6.496E-02  3.445E+02  3.355E+02
  4.252E-02  9.784E-02  1.018E+05  1.303E-08  6.495E-02  3.657E+02  3.536E+02
  4.252E-02  1.042E-01  1.018E+05  1.200E-08  6.493E-02  3.906E+02  3.757E+02
  4.252E-02  1.105E-01  1.018E+05  1.196E-08  6.493E-02  4.159E+02  3.996E+02
  4.252E-02  1.168E-01  1.018E+05  1.268E-08  6.494E-02  4.386E+02  4.228E+02
  4.252E-02  1.231E-01  1.018E+05  1.402E-08  6.495E-02  4.570E+02  4.432E+02
  4.252E-02  1.294E-01  1.018E+05  1.583E-08  6.496E-02  4.700E+02  4.591E+02
  4.252E-02  1.357E-01  1.018E+05  1.794E-08  6.498E-02  4.772E+02  4.698E+02
  4.252E-02  1.420E-01  1.017E+05  2.022E-08  6.498E-02  4.788E+02  4.750E+02
  4.252E-02  1.483E-01  1.017E+05  2.256E-08  6.499E-02  4.751E+02  4.750E+02
  4.252E-02  1.547E-01  1.017E+05  2.495E-08  6.502E-02  4.672E+02  4.703E+02
  4.252E-02  1.610E-01  1.017E+05  2.750E-08  6.503E-02  4.559E+02  4.616E+02
  4.252E-02  1.673E-01  1.017E+05  3.047E-08  6.503E-02  4.422E+02  4.500E+02
  4.252E-02  1.736E-01  1.017E+05  3.431E-08  6.504E-02  4.271E+02  4.363E+02
  4.252E-02  1.799E-01  1.017E+05  3.968E-08  6.504E-02  4.115E+02  4.215E+02
  4.252E-02  1.862E-01  1.017E+05  4.754E-08  6.504E-02  3.960E+02  4.063E+02
  4.252E-02  1.925E-01  1.017E+05  5.937E-08  6.504E-02  3.812E+02  3.913E+02
  4.252E-02  1.988E-01  1.017E+05  7.639E-08  6.504E-02  3.675E+02  3.771E+02
  4.252E-02  2.052E-01  1.017E+05  1.060E-07  6.503E-02  3.551E+02  3.640E+02
  4.252E-02  2.115E-01  1.017E+05  1.222E-07  6.503E-02  3.442E+02  3.522E+02
  4.252E-02  2.178E-01  1.017E+05  3.221E-07  6.503E-02  3.347E+02  3.418E+02
  4.252E-02  2.241E-01  1.017E+05 -5.056E-07  6.503E-02  3.266E+02  3.328E+02
  4.252E-02  2.304E-01  1.016E+05 -2.886E-06  6.502E-02  3.198E+02  3.251E+02
  4.252E-02  2.367E-01  1.016E+05 -2.865E-06  6.501E-02  3.142E+02  3.186E+02
  4.252E-02  2.430E-01  1.016E+05 -4.837E-07  6.501E-02  3.097E+02  3.133E+02
  4.252E-02  2.493E-01  1.016E+05  3.177E-07  6.500E-02  3.060E+02  3.090E+02
  4.252E-02  2.557E-01  1.016E+05  1.126E-07  6.500E-02  3.031E+02  3.055E+02
  4.252E-02  2.620E-01  1.016E+05  9.752E-08  6.501E-02  3.008E+02  3.027E+02
  4.252E-02  2.683E-01  1.016E+05  6.567E-08  6.501E-02  2.989E+02  3.005E+02
  4.252E-02  2.746E-01  1.016E+05  4.697E-08  6.500E-02  2.975E+02  2.987E+02
  4.252E-02  2.809E-01  1.016E+05  3.325E-08  6.499E-02  2.965E+02  2.974E+02
  4.252E-02  2.872E-01  1.016E+05  2.371E-08  6.500E-02  2.956E+02  2.963E+02
  4.252E-02  2.935E-01  1.016E+05  1.696E-08  6.501E-02  2.950E+02  2.955E+02
  4.252E-02  2.998E-01  1.016E+05  1.219E-08  6.500E-02  2.945E+02  2.949E+02
  4.252E-02  3.062E-01  1.016E+05  8.819E-09  6.500E-02  2.942E+02  2.945E+02
  4.252E-02  3.125E-01  1.015E+05  6.426E-09  6.500E-02  2.939E+02  2.941E+02
  4.252E-02  3.188E-01  1.015E+05  4.733E-09  6.500E-02  2.937E+02  2.939E+02
  4.252E-02  3.251E-01  1.015E+05  3.512E-09  6.500E-02  2.935E+02  2.937E+02
  4.252E-02  3.314E-01  1.015E+05  2.626E-09  6.500E-02  2.934E+02  2.935E+02
  4.252E-02  3.377E-01  1.015E+05  1.969E-09  6.500E-02  2.933E+02  2.934E+02
  4.252E-02  3.440E-01  1.015E+05  1.467E-09  6.500E-02  2.933E+02  2.933E+02
  4.252E-02  3.503E-01  1.015E+05  1.088E-09  6.500E-02  2.932E+02  2.933E+02
  4.252E-02  3.567E-01  1.015E+05  7.940E-10  6.500E-02  2.932E+02  2.932E+02
  4.252E-02  3.630E-01  1.015E+05  5.637E-10  6.500E-02  2.932E+02  2.932E+02
  4.252E-02  3.693E-01  1.015E+05  3.629E-10  6.500E-02  2.931E+02  2.931E+02
  4.252E-02  3.756E-01  1.015E+05  1.742E-10  6.500E-02  2.931E+02  2.931E+02
  4.252E-02  3.819E-01  1.015E+05  4.031E-11  6.500E-02  2.931E+02  2.931E+02
  4.252E-02  3.882E-01  1.015E+05 -7.023E-11  6.500E-02  2.931E+02  2.931E+02
  4.252E-02  3.945E-01  1.015E+05 -1.792E-10  6.500E-02  2.931E+02  2.931E+02
  4.252E-02  4.008E-01  1.014E+05 -2.645E-10  6.500E-02  2.931E+02  2.931E+02
  4.252E-02  4.072E-01  1.014E+05 -3.290E-10  6.500E-02  2.931E+02  2.931E+02
  4.252E-02  4.135E-01  1.014E+05 -3.747E-10  6.500E-02  2.930E+02  2.931E+02
  4.252E-02  4.198E-01  1.014E+05 -4.044E-10  6.501E-02  2.930E+02  2.930E+02
  4.252E-02  4.261E-01  1.014E+05 -4.151E-10  6.500E-02  2.930E+02  2.930E+02
  4.252E-02  4.324E-01  1.014E+05 -4.344E-10  6.500E-02  2.930E+02  2.930E+02
  4.252E-02  4.387E-01  1.014E+05 -4.407E-10  6.500E-02  2.930E+02  2.930E+02
  4.252E-02  4.450E-01  1.014E+05 -4.115E-10  6.500E-02  2.930E+02  2.930E+02
  4.252E-02  4.513E-01  1.014E+05 -3.989E-10  6.500E-02  2.930E+02  2.930E+02
  4.252E-02  4.577E-01  1.014E+05 -3.752E-10  6.500E-02  2.930E+02  2.930E+02
  4.252E-02  4.640E-01  1.014E+05 -3.445E-10  6.500E-02  2.930E+02  2.930E+02
  4.252E-02  4.703E-01  1.014E+05 -3.092E-10  6.500E-02  2.930E+02  2.930E+02
  4.252E-02  4.766E-01  1.014E+05 -2.680E-10  6.500E-02  2.930E+02  2.930E+02
  4.252E-02  4.829E-01  1.014E+05 -2.226E-10  6.500E-02  2.930E+02  2.930E+02
  4.252E-02  4.892E-01  1.013E+05 -1.671E-10  6.500E-02  2.930E+02  2.930E+02
  4.252E-02  4.955E-01  1.013E+05 -1.260E-10  6.500E-02  2.930E+02  2.930E+02
  4.252E-02  5.018E-01  1.013E+05 -9.850E-11  6.500E-02  2.930E+02  2.930E+02
  4.252E-02  5.050E-01  1.013E+05 -9.850E-11  6.500E-02  2.930E+02  2.930E+02
  7.087E-02  0.000E+00  1.019E+05  6.696E-09  6.500E-02  2.930E+02  2.930E+02
  7.087E-02  3.156E-03  1.019E+05  6.696E-09  6.498E-02  2.930E+02  2.930E+02
  7.087E-02  9.469E-03  1.019E+05  2.970E-09  6.500E-02  2.931E+02  2.931E+02
  7.087E-02  1.578E-02  1.019E+05 -1.129E-08  6.500E-02  2.932E+02  2.932E+02
  7.087E-02  2.209E-02  1.019E+05  5.583E-09  6.500E-02  2.934E+02  2.933E+02
  7.087E-02  2.841E-02  1.019E+05 -1.969E-07  6.500E-02  2.937E+02  2.935E+02
  7.087E-02  3.472E-02  1.019E+05  8.344E-07  6.499E-02  2.941E+02  2.939E+02
  7.087E-02  4.103E-02  1.019E+05  2.220E-06  6.500E-02  2.948E+02  2.944E+02
  7.087E-02  4.734E-02  1.019E+05  9.029E-07  6.500E-02  2.958E+02  2.953E+02
  7.087E-02  5.366E-02  1.018E+05 -1.661E-07  6.500E-02  2.974E+02  2.966E+02
  7.087E-02  5.997E-02  1.018E+05 -9.023E-09  6.500E-02  2.999E+02  2.986E+02
  7.087E-02  6.628E-02  1.018E+05 -2.904E-08  6.499E-02  3.035E+02  3.015E+02
  7.087E-02  7.259E-02  1.018E+05 -1.279E-08  6.499E-02  3.089E+02  3.060E+02
  7.087E-02  7.891E-02  1.018E+05 -8.237E-09  6.498E-02  3.168E+02  3.125E+02
  7.087E-02  8.522E-02  1.018E+05 -3.804E-09  6.497E-02  3.283E+02  3.220E+02
  7.087E-02  9.153E-02  1.018E+05 -9.900E-10  6.496E-02  3.445E+02  3.355E+02
  7.087E-02  9.784E-02  1.018E+05  1.052E-09  6.495E-02  3.657E+02  3.536E+02
  7.087E-02  1.042E-01  1.018E+05  2.540E-09  6.493E-02  3.906E+02  3.757E+02
  7.087E-02  1.105E-01  1.018E+05  3.638E-09  6.493E-02  4.159E+02  3.996E+02
  7.087E-02  1.168E-01  1.018E+05  4.439E-09  6.494E-02  4.386E+02  4.228E+02
  7.087E-02  1.231E-01  1.018E+05  4.968E-09  6.495E-02  4.570E+02  4.432E+02
  7.087E-02  1.294E-01  1.018E+05  5.196E-09  6.496E-02  4.700E+02  4.591E+02
  7.087E-02  1.357E-01  1.018E+05  5.121E-09  6.498E-02  4.772E+02  4.698E+02
  7.087E-02  1.420E-01  1.017E+05  4.747E-09  6.498E-02  4.788E+02  4.750E+02
  7.087E-02  1.483E-01  1.017E+05  4.041E-09  6.499E-02  4.751E+02  4.750E+02
  7.087E-02  1.547E-01  1.017E+05  3.006E-09  6.502E-02  4.672E+02  4.703E+02
  7.087E-02  1.610E-01  1.017E+05  1.654E-09  6.503E-02  4.559E+02  4.616E+02
  7.087E-02  1.673E-01  1.017E+05 -3.031E-11  6.504E-02  4.422E+02  4.500E+02
  7.087E-02  1.736E-01  1.017E+05 -2.080E-09  6.504E-02  4.271E+02  4.363E+02
  7.087E-02  1.799E-01  1.017E+05 -4.529E-09  6.504E-02  4.115E+02  4.215E+02
  7.087E-02  1.862E-01  1.017E+05 -7.437E-09  6.504E-02  3.960E+02  4.063E+02
  7.087E-02  1.925E-01  1.017E+05 -1.090E-08  6.504E-02  3.812E+02  3.914E+02
  7.087E-02  1.988E-01  1.017E+05 -1.501E-08  6.504E-02  3.675E+02  3.772E+02
  7.087E-02  2.052E-01  1.017E+05 -1.990E-08  6.503E-02  3.551E+02  3.640E+02
  7.087E-02  2.115E-01  1.017E+05 -2.558E-08  6.503E-02  3.442E+02  3.522E+02
  7.087E-02  2.178E-01  1.017E+05 -3.180E-08  6.503E-02  3.347E+02  3.418E+02
  7.087E-02  2.241E-01  1.017E+05 -3.807E-08  6.502E-02  3.266E+02  3.328E+02
  7.087E-02  2.304E-01  1.016E+05 -4.270E-08  6.501E-02  3.198E+02  3.251E+02
  7.087E-02  2.367E-01  1.016E+05 -4.269E-08  6.502E-02  3.143E+02  3.187E+02
  7.087E-02  2.430E-01  1.016E+05 -3.724E-08  6.502E-02  3.097E+02  3.133E+02
  7.087E-02  2.493E-01  1.016E+05 -3.033E-08  6.501E-02  3.060E+02  3.090E+02
  7.087E-02  2.557E-01  1.016E+05 -2.351E-08  6.500E-02  3.031E+02  3.055E+02
  7.087E-02  2.620E-01  1.016E+05 -1.741E-08  6.501E-02  3.008E+02  3.027E+02
  7.087E-02  2.683E-01  1.016E+05 -1.230E-08  6.501E-02  2.990E+02  3.005E+02
  7.087E-02  2.746E-01  1.016E+05 -8.192E-09  6.500E-02  2.975E+02  2.987E+02
  7.087E-02  2.809E-01  1.016E+05 -4.986E-09  6.499E-02  2.965E+02  2.974E+02
  7.087E-02  2.872E-01  1.016E+05 -2.555E-09  6.500E-02  2.956E+02  2.963E+02
  7.087E-02  2.935E-01  1.016E+05 -7.644E-10  6.500E-02  2.950E+02  2.956E+02
  7.087E-02  2.998E-01  1.016E+05  5.333E-10  6.500E-02  2.945E+02  2.949E+02
  7.087E-02  3.062E-01  1.016E+05  1.420E-09  6.500E-02  2.942E+02  2.945E+02
  7.087E-02  3.125E-01  1.015E+05  2.006E-09  6.500E-02  2.939E+02  2.941E+02
  7.087E-02  3.188E-01  1.015E+05  2.369E-09  6.500E-02  2.937E+02  2.939E+02
  7.087E-02  3.251E-01  1.015E+05  2.534E-09  6.500E-02  2.935E+02  2.937E+02
  7.087E-02  3.314E-01  1.015E+05  2.572E-09  6.500E-02  2.934E+02  2.935E+02
  7.087E-02  3.377E-01  1.015E+05  2.528E-09  6.500E-02  2.933E+02  2.934E+02
  7.087E-02  3.440E-01  1.015E+05  2.433E-09  6.500E-02  2.933E+02  2.933E+02
  7.087E-02  3.503E-01  1.015E+05  2.284E-09  6.500E-02  2.932E+02  2.933E+02
  7.087E-02  3.567E-01  1.015E+05  2.082E-09  6.500E-02  2.932E+02  2.932E+02
  7.087E-02  3.630E-01  1.015E+05  1.854E-09  6.500E-02  2.932E+02  2.932E+02
  7.087E-02  3.693E-01  1.015E+05  1.637E-09  6.500E-02  2.931E+02  2.931E+02
  7.087E-02  3.756E-01  1.015E+05  1.409E-09  6.500E-02  2.931E+02  2.931E+02
  7.087E-02  3.819E-01  1.015E+05  1.187E-09  6.500E-02  2.931E+02  2.931E+02
  7.087E-02  3.882E-01  1.015E+05  9.720E-10  6.500E-02  2.931E+02  2.931E+02
  7.087E-02  3.945E-01  1.015E+05  7.731E-10  6.500E-02  2.931E+02  2.931E+02
  7.087E-02  4.008E-01  1.014E+05  5.893E-10  6.500E-02  2.931E+02  2.931E+02
  7.087E-02  4.072E-01  1.014E+05  4.272E-10  6.500E-02  2.931E+02  2.931E+02
  7.087E-02  4.135E-01  1.014E+05  2.848E-10  6.500E-02  2.930E+02  2.931E+02
  7.087E-02  4.198E-01  1.014E+05  1.624E-10  6.501E-02  2.930E+02  2.930E+02
  7.087E-02  4.261E-01  1.014E+05  6.244E-11  6.500E-02  2.930E+02  2.930E+02
  7.087E-02  4.324E-01  1.014E+05 -2.036E-11  6.500E-02  2.930E+02  2.930E+02
  7.087E-02  4.387E-01  1.014E+05 -8.114E-11  6.500E-02  2.930E+02  2.930E+02
  7.087E-02  4.450E-01  1.014E+05 -1.271E-10  6.500E-02  2.930E+02  2.930E+02
  7.087E-02  4.513E-01  1.014E+05 -1.563E-10  6.500E-02  2.930E+02  2.930E+02
  7.087E-02  4.577E-01  1.014E+05 -1.750E-10  6.500E-02  2.930E+02  2.930E+02
  7.087E-02  4.640E-01  1.014E+05 -1.803E-10  6.500E-02  2.930E+02  2.930E+02
  7.087E-02  4.703E-01  1.014E+05 -1.777E-10  6.500E-02  2.930E+02  2.930E+02
  7.087E-02  4.766E-01  1.014E+05 -1.639E-10  6.500E-02  2.930E+02  2.930E+02
  7.087E-02  4.829E-01  1.014E+05 -1.450E-10  6.500E-02  2.930E+02  2.930E+02
  7.087E-02  4.892E-01  1.013E+05 -1.180E-10  6.500E-02  2.930E+02  2.930E+02
  7.087E-02  4.955E-01  1.013E+05 -8.595E-11  6.500E-02  2.930E+02  2.930E+02
  7.087E-02  5.018E-01  1.013E+05 -6.771E-11  6.500E-02  2.930E+02  2.930E+02
  7.087E-02  5.050E-01  1.013E+05 -6.771E-11  6.500E-02  2.930E+02  2.930E+02
  9.922E-02  0.000E+00  1.019E+05 -2.647E-08  6.500E-02  2.930E+02  2.930E+02
  9.922E-02  3.156E-03  1.019E+05 -2.647E-08  6.498E-02  2.930E+02  2.930E+02
  9.922E-02  9.469E-03  1.019E+05 -3.002E-08  6.500E-02  2.931E+02  2.931E+02
  9.922E-02  1.578E-02  1.019E+05 -4.440E-08  6.500E-02  2.932E+02  2.932E+02
  9.922E-02  2.209E-02  1.019E+05 -2.808E-08  6.500E-02  2.934E+02  2.933E+02
  9.922E-02  2.841E-02  1.019E+05 -2.313E-07  6.500E-02  2.937E+02  2.935E+02
  9.922E-02  3.472E-02  1.019E+05  7.990E-07  6.500E-02  2.941E+02  2.939E+02
  9.922E-02  4.103E-02  1.019E+05  2.185E-06  6.500E-02  2.948E+02  2.944E+02
  9.922E-02  4.734E-02  1.019E+05  8.710E-07  6.499E-02  2.958E+02  2.953E+02
  9.922E-02  5.366E-02  1.018E+05 -1.936E-07  6.499E-02  2.974E+02  2.966E+02
  9.922E-02  5.997E-02  1.018E+05 -3.221E-08  6.500E-02  2.999E+02  2.986E+02
  9.922E-02  6.628E-02  1.018E+05 -4.834E-08  6.499E-02  3.035E+02  3.015E+02
  9.922E-02  7.259E-02  1.018E+05 -2.891E-08  6.499E-02  3.089E+02  3.060E+02
  9.922E-02  7.891E-02  1.018E+05 -2.196E-08  6.498E-02  3.168E+02  3.125E+02
  9.922E-02  8.522E-02  1.018E+05 -1.589E-08  6.497E-02  3.283E+02  3.220E+02
  9.922E-02  9.153E-02  1.018E+05 -1.203E-08  6.496E-02  3.445E+02  3.355E+02
  9.922E-02  9.784E-02  1.018E+05 -9.440E-09  6.495E-02  3.657E+02  3.536E+02
  9.922E-02  1.042E-01  1.018E+05 -7.843E-09  6.493E-02  3.906E+02  3.757E+02
  9.922E-02  1.105E-01  1.018E+05 -7.003E-09  6.493E-02  4.159E+02  3.996E+02
  9.922E-02  1.168E-01  1.018E+05 -6.775E-09  6.494E-02  4.386E+02  4.228E+02
  9.922E-02  1.231E-01  1.018E+05 -7.087E-09  6.495E-02  4.570E+02  4.432E+02
  9.922E-02  1.294E-01  1.018E+05 -7.902E-09  6.496E-02  4.700E+02  4.591E+02
  9.922E-02  1.357E-01  1.018E+05 -9.158E-09  6.498E-02  4.772E+02  4.698E+02
  9.922E-02  1.420E-01  1.017E+05 -1.081E-08  6.498E-02  4.788E+02  4.750E+02
  9.922E-02  1.483E-01  1.017E+05 -1.283E-08  6.499E-02  4.751E+02  4.750E+02
  9.922E-02  1.547E-01  1.017E+05 -1.523E-08  6.502E-02  4.672E+02  4.703E+02
  9.922E-02  1.610E-01  1.017E+05 -1.815E-08  6.503E-02  4.559E+02  4.616E+02
  9.922E-02  1.673E-01  1.017E+05 -2.188E-08  6.503E-02  4.422E+02  4.500E+02
  9.922E-02  1.736E-01  1.017E+05 -2.694E-08  6.504E-02  4.271E+02  4.363E+02
  9.922E-02  1.799E-01  1.017E+05 -3.412E-08  6.504E-02  4.115E+02  4.215E+02
  9.922E-02  1.862E-01  1.017E+05 -4.462E-08  6.504E-02  3.960E+02  4.063E+02
  9.922E-02  1.925E-01  1.017E+05 -6.042E-08  6.504E-02  3.812E+02  3.914E+02
  9.922E-02  1.988E-01  1.017E+05 -8.356E-08  6.504E-02  3.675E+02  3.772E+02
  9.922E-02  2.052E-01  1.017E+05 -1.227E-07  6.503E-02  3.551E+02  3.640E+02
  9.922E-02  2.115E-01  1.017E+05 -1.544E-07  6.503E-02  3.442E+02  3.522E+02
  9.922E-02  2.178E-01  1.017E+05 -3.774E-07  6.503E-02  3.347E+02  3.418E+02
  9.922E-02  2.241E-01  1.017E+05  4.067E-07  6.503E-02  3.266E+02  3.328E+02
  9.922E-02  2.304E-01  1.016E+05  2.733E-06  6.502E-02  3.198E+02  3.251E+02
  9.922E-02  2.367E-01  1.016E+05  2.714E-06  6.501E-02  3.142E+02  3.186E+02
  9.922E-02  2.430E-01  1.016E+05  3.882E-07  6.501E-02  3.097E+02  3.133E+02
  9.922E-02  2.493E-01  1.016E+05 -3.698E-07  6.500E-02  3.060E+02  3.090E+02
  9.922E-02  2.557E-01  1.016E+05 -1.417E-07  6.500E-02  3.031E+02  3.055E+02
  9.922E-02  2.620E-01  1.016E+05 -1.110E-07  6.501E-02  3.008E+02  3.027E+02
  9.922E-02  2.683E-01  1.016E+05 -6.992E-08  6.501E-02  2.989E+02  3.005E+02
  9.922E-02  2.746E-01  1.016E+05 -4.556E-08  6.500E-02  2.975E+02  2.987E+02
  9.922E-02  2.809E-01  1.016E+05 -2.857E-08  6.499E-02  2.965E+02  2.974E+02
  9.922E-02  2.872E-01  1.016E+05 -1.726E-08  6.500E-02  2.956E+02  2.963E+02
  9.922E-02  2.935E-01  1.016E+05 -9.679E-09  6.501E-02  2.950E+02  2.955E+02
  9.922E-02  2.998E-01  1.016E+05 -4.660E-09  6.500E-02  2.945E+02  2.949E+02
  9.922E-02  3.062E-01  1.016E+05 -1.402E-09  6.500E-02  2.942E+02  2.945E+02
  9.922E-02  3.125E-01  1.015E+05  6.629E-10  6.500E-02  2.939E+02  2.941E+02
  9.922E-02  3.188E-01  1.015E+05  1.905E-09  6.500E-02  2.937E+02  2.939E+02
  9.922E-02  3.251E-01  1.015E+05  2.602E-09  6.500E-02  2.935E+02  2.937E+02
  9.922E-02  3.314E-01  1.015E+05  2.936E-09  6.500E-02  2.934E+02  2.935E+02
  9.922E-02  3.377E-01  1.015E+05  3.026E-09  6.500E-02  2.933E+02  2.934E+02