VARIABLES="XP","YP","P","U","V","TS","TF"
ZONE T="Zone 001"I=    82 J=    12 F=POINT
  0.000E+00  0.000E+00  1.013E+05  0.000E+00  0.000E+00  2.932E+02  2.934E+02
  0.000E+00  3.156E-03  1.013E+05  0.000E+00  0.000E+00  2.932E+02  2.934E+02
  0.000E+00  9.469E-03  1.013E+05  0.000E+00  0.000E+00  2.934E+02  2.936E+02
  0.000E+00  1.578E-02  1.013E+05  0.000E+00  0.000E+00  2.937E+02  2.938E+02
  0.000E+00  2.209E-02  1.013E+05  0.000E+00  0.000E+00  2.939E+02  2.941E+02
  0.000E+00  2.841E-02  1.013E+05  0.000E+00  0.000E+00  2.942E+02  2.945E+02
  0.000E+00  3.472E-02  1.013E+05  0.000E+00  0.000E+00  2.946E+02  2.951E+02
  0.000E+00  4.103E-02  1.013E+05  0.000E+00  0.000E+00  2.953E+02  2.962E+02
  0.000E+00  4.734E-02  1.013E+05  0.000E+00  0.000E+00  2.964E+02  2.981E+02
  0.000E+00  5.366E-02  1.013E+05  0.000E+00  0.000E+00  2.986E+02  3.016E+02
  0.000E+00  5.997E-02  1.013E+05  0.000E+00  0.000E+00  3.026E+02  3.076E+02
  0.000E+00  6.628E-02  1.013E+05  0.000E+00  0.000E+00  3.098E+02  3.165E+02
  0.000E+00  7.259E-02  1.013E+05  0.000E+00  0.000E+00  3.222E+02  3.307E+02
  0.000E+00  7.891E-02  1.013E+05  0.000E+00  0.000E+00  3.428E+02  3.535E+02
  0.000E+00  8.522E-02  1.013E+05  0.000E+00  0.000E+00  3.751E+02  3.884E+02
  0.000E+00  9.153E-02  1.013E+05  0.000E+00  0.000E+00  4.230E+02  4.421E+02
  0.000E+00  9.784E-02  1.013E+05  0.000E+00  0.000E+00  4.897E+02  5.267E+02
  0.000E+00  1.042E-01  1.013E+05  0.000E+00  0.000E+00  5.706E+02  7.181E+02
  0.000E+00  1.105E-01  1.013E+05  0.000E+00  0.000E+00  4.893E+02  5.285E+02
  0.000E+00  1.168E-01  1.013E+05  0.000E+00  0.000E+00  4.221E+02  4.486E+02
  0.000E+00  1.231E-01  1.013E+05  0.000E+00  0.000E+00  3.740E+02  3.936E+02
  0.000E+00  1.294E-01  1.013E+05  0.000E+00  0.000E+00  3.419E+02  3.539E+02
  0.000E+00  1.357E-01  1.013E+05  0.000E+00  0.000E+00  3.215E+02  3.293E+02
  0.000E+00  1.420E-01  1.013E+05  0.000E+00  0.000E+00  3.092E+02  3.152E+02
  0.000E+00  1.483E-01  1.013E+05  0.000E+00  0.000E+00  3.022E+02  3.063E+02
  0.000E+00  1.547E-01  1.013E+05  0.000E+00  0.000E+00  2.983E+02  3.012E+02
  0.000E+00  1.610E-01  1.013E+05  0.000E+00  0.000E+00  2.962E+02  2.980E+02
  0.000E+00  1.673E-01  1.013E+05  0.000E+00  0.000E+00  2.951E+02  2.961E+02
  0.000E+00  1.736E-01  1.013E+05  0.000E+00  0.000E+00  2.945E+02  2.950E+02
  0.000E+00  1.799E-01  1.013E+05  0.000E+00  0.000E+00  2.941E+02  2.944E+02
  0.000E+00  1.862E-01  1.013E+05  0.000E+00  0.000E+00  2.939E+02  2.941E+02
  0.000E+00  1.925E-01  1.013E+05  0.000E+00  0.000E+00  2.938E+02  2.939E+02
  0.000E+00  1.988E-01  1.013E+05  0.000E+00  0.000E+00  2.937E+02  2.937E+02
  0.000E+00  2.052E-01  1.013E+05  0.000E+00  0.000E+00  2.936E+02  2.936E+02
  0.000E+00  2.115E-01  1.013E+05  0.000E+00  0.000E+00  2.935E+02  2.936E+02
  0.000E+00  2.178E-01  1.013E+05  0.000E+00  0.000E+00  2.935E+02  2.935E+02
  0.000E+00  2.241E-01  1.013E+05  0.000E+00  0.000E+00  2.934E+02  2.934E+02
  0.000E+00  2.304E-01  1.013E+05  0.000E+00  0.000E+00  2.934E+02  2.934E+02
  0.000E+00  2.367E-01  1.013E+05  0.000E+00  0.000E+00  2.933E+02  2.933E+02
  0.000E+00  2.430E-01  1.013E+05  0.000E+00  0.000E+00  2.933E+02  2.933E+02
  0.000E+00  2.493E-01  1.013E+05  0.000E+00  0.000E+00  2.933E+02  2.933E+02
  0.000E+00  2.557E-01  1.013E+05  0.000E+00  0.000E+00  2.932E+02  2.932E+02
  0.000E+00  2.620E-01  1.013E+05  0.000E+00  0.000E+00  2.932E+02  2.932E+02
  0.000E+00  2.683E-01  1.013E+05  0.000E+00  0.000E+00  2.932E+02  2.932E+02
  0.000E+00  2.746E-01  1.013E+05  0.000E+00  0.000E+00  2.932E+02  2.932E+02
  0.000E+00  2.809E-01  1.013E+05  0.000E+00  0.000E+00  2.931E+02  2.932E+02
  0.000E+00  2.872E-01  1.013E+05  0.000E+00  0.000E+00  2.931E+02  2.931E+02
  0.000E+00  2.935E-01  1.013E+05  0.000E+00  0.000E+00  2.931E+02  2.931E+02
  0.000E+00  2.998E-01  1.013E+05  0.000E+00  0.000E+00  2.931E+02  2.931E+02
  0.000E+00  3.062E-01  1.013E+05  0.000E+00  0.000E+00  2.931E+02  2.931E+02
  0.000E+00  3.125E-01  1.013E+05  0.000E+00  0.000E+00  2.931E+02  2.931E+02
  0.000E+00  3.188E-01  1.013E+05  0.000E+00  0.000E+00  2.931E+02  2.931E+02
  0.000E+00  3.251E-01  1.013E+05  0.000E+00  0.000E+00  2.931E+02  2.931E+02
  0.000E+00  3.314E-01  1.013E+05  0.000E+00  0.000E+00  2.931E+02  2.931E+02
  0.000E+00  3.377E-01  1.013E+05  0.000E+00  0.000E+00  2.931E+02  2.931E+02
  0.000E+00  3.440E-01  1.013E+05  0.000E+00  0.000E+00  2.930E+02  2.931E+02
  0.000E+00  3.503E-01  1.013E+05  0.000E+00  0.000E+00  2.930E+02  2.930E+02
  0.000E+00  3.567E-01  1.013E+05  0.000E+00  0.000E+00  2.930E+02  2.930E+02
  0.000E+00  3.630E-01  1.013E+05  0.000E+00  0.000E+00  2.930E+02  2.930E+02
  0.000E+00  3.693E-01  1.013E+05  0.000E+00  0.000E+00  2.930E+02  2.930E+02
  0.000E+00  3.756E-01  1.013E+05  0.000E+00  0.000E+00  2.930E+02  2.930E+02
  0.000E+00  3.819E-01  1.013E+05  0.000E+00  0.000E+00  2.930E+02  2.930E+02
  0.000E+00  3.882E-01  1.013E+05  0.000E+00  0.000E+00  2.930E+02  2.930E+02
  0.000E+00  3.945E-01  1.013E+05  0.000E+00  0.000E+00  2.930E+02  2.930E+02
  0.000E+00  4.008E-01  1.013E+05  0.000E+00  0.000E+00  2.930E+02  2.930E+02
  0.000E+00  4.072E-01  1.013E+05  0.000E+00  0.000E+00  2.930E+02  2.930E+02
  0.000E+00  4.135E-01  1.013E+05  0.000E+00  0.000E+00  2.930E+02  2.930E+02
  0.000E+00  4.198E-01  1.013E+05  0.000E+00  0.000E+00  2.930E+02  2.930E+02
  0.000E+00  4.261E-01  1.013E+05  0.000E+00  0.000E+00  2.930E+02  2.930E+02
  0.000E+00  4.324E-01  1.013E+05  0.000E+00  0.000E+00  2.930E+02  2.930E+02
  0.000E+00  4.387E-01  1.013E+05  0.000E+00  0.000E+00  2.930E+02  2.930E+02
  0.000E+00  4.450E-01  1.013E+05  0.000E+00  0.000E+00  2.930E+02  2.930E+02
  0.000E+00  4.513E-01  1.013E+05  0.000E+00  0.000E+00  2.930E+02  2.930E+02
  0.000E+00  4.577E-01  1.013E+05  0.000E+00  0.000E+00  2.930E+02  2.930E+02
  0.000E+00  4.640E-01  1.013E+05  0.000E+00  0.000E+00  2.930E+02  2.930E+02
  0.000E+00  4.703E-01  1.013E+05  0.000E+00  0.000E+00  2.930E+02  2.930E+02
  0.000E+00  4.766E-01  1.013E+05  0.000E+00  0.000E+00  2.930E+02  2.930E+02
  0.000E+00  4.829E-01  1.013E+05  0.000E+00  0.000E+00  2.930E+02  2.930E+02
  0.000E+00  4.892E-01  1.013E+05  0.000E+00  0.000E+00  2.930E+02  2.930E+02
  0.000E+00  4.955E-01  1.013E+05  0.000E+00  0.000E+00  2.930E+02  2.930E+02
  0.000E+00  5.018E-01  1.013E+05  0.000E+00  0.000E+00  2.930E+02  2.930E+02
  0.000E+00  5.050E-01  1.013E+05  0.000E+00  0.000E+00  2.930E+02  2.930E+02
  1.417E-02  0.000E+00  1.013E+05  0.000E+00  0.000E+00  2.930E+02  2.934E+02
  1.417E-02  3.156E-03  1.013E+05  5.306E-09  1.746E-06  2.932E+02  2.934E+02
  1.417E-02  9.469E-03  1.013E+05  2.526E-10  1.651E-06  2.934E+02  2.936E+02
  1.417E-02  1.578E-02  1.013E+05 -9.315E-09  2.459E-06  2.937E+02  2.938E+02
  1.417E-02  2.209E-02  1.013E+05 -2.544E-08  3.211E-06  2.939E+02  2.941E+02
  1.417E-02  2.841E-02  1.013E+05 -4.907E-08  5.001E-06  2.942E+02  2.945E+02
  1.417E-02  3.472E-02  1.013E+05 -8.065E-08  2.199E-06  2.946E+02  2.951E+02
  1.417E-02  4.103E-02  1.013E+05 -1.225E-07 -5.555E-06  2.953E+02  2.962E+02
  1.417E-02  4.734E-02  1.013E+05 -1.789E-07 -4.318E-06  2.964E+02  2.981E+02
  1.417E-02  5.366E-02  1.013E+05 -2.621E-07  4.214E-06  2.986E+02  3.016E+02
  1.417E-02  5.997E-02  1.013E+05 -3.183E-07  4.401E-06  3.026E+02  3.076E+02
  1.417E-02  6.628E-02  1.013E+05 -5.005E-07  5.150E-06  3.098E+02  3.165E+02
  1.417E-02  7.259E-02  1.013E+05  1.011E-06  7.981E-06  3.222E+02  3.307E+02
  1.417E-02  7.891E-02  1.013E+05  1.160E-05  1.395E-05  3.428E+02  3.535E+02
  1.417E-02  8.522E-02  1.013E+05  3.130E-06  1.360E-05  3.751E+02  3.884E+02
  1.417E-02  9.153E-02  1.013E+05  9.138E-07 -1.144E-05  4.230E+02  4.421E+02
  1.417E-02  9.784E-02  1.013E+05 -9.009E-06 -1.349E-04  4.897E+02  5.267E+02
  1.417E-02  1.042E-01  1.013E+05  1.058E-06  6.400E-04  5.706E+02  7.181E+02
  1.417E-02  1.105E-01  1.013E+05  2.515E-06 -1.354E-04  4.893E+02  5.285E+02
  1.417E-02  1.168E-01  1.013E+05  1.890E-06 -2.155E-05  4.221E+02  4.486E+02
  1.417E-02  1.231E-01  1.013E+05  4.988E-07 -2.123E-05  3.740E+02  3.936E+02
  1.417E-02  1.294E-01  1.013E+05 -6.761E-07 -2.550E-05  3.419E+02  3.539E+02
  1.417E-02  1.357E-01  1.013E+05 -1.170E-06 -1.792E-05  3.215E+02  3.293E+02
  1.417E-02  1.420E-01  1.013E+05 -1.468E-06  1.939E-06  3.092E+02  3.152E+02
  1.417E-02  1.483E-01  1.013E+05 -1.325E-06  1.165E-05  3.022E+02  3.063E+02
  1.417E-02  1.547E-01  1.013E+05 -9.859E-07  3.534E-06  2.983E+02  3.012E+02
  1.417E-02  1.610E-01  1.013E+05 -7.626E-07 -2.821E-06  2.962E+02  2.980E+02
  1.417E-02  1.673E-01  1.013E+05 -5.993E-07  3.854E-06  2.951E+02  2.961E+02
  1.417E-02  1.736E-01  1.013E+05 -4.587E-07  5.471E-06  2.945E+02  2.950E+02
  1.417E-02  1.799E-01  1.013E+05 -3.571E-07  3.298E-06  2.941E+02  2.944E+02
  1.417E-02  1.862E-01  1.013E+05 -2.803E-07  2.606E-06  2.939E+02  2.941E+02
  1.417E-02  1.925E-01  1.013E+05 -2.222E-07  2.090E-06  2.938E+02  2.939E+02
  1.417E-02  1.988E-01  1.013E+05 -1.774E-07  1.767E-06  2.937E+02  2.937E+02
  1.417E-02  2.052E-01  1.013E+05 -1.421E-07  1.527E-06  2.936E+02  2.936E+02
  1.417E-02  2.115E-01  1.013E+05 -1.138E-07  1.336E-06  2.935E+02  2.936E+02
  1.417E-02  2.178E-01  1.013E+05 -9.060E-08  1.165E-06  2.935E+02  2.935E+02
  1.417E-02  2.241E-01  1.013E+05 -7.121E-08  1.030E-06  2.934E+02  2.934E+02
  1.417E-02  2.304E-01  1.013E+05 -5.475E-08  7.615E-07  2.934E+02  2.934E+02
  1.417E-02  2.367E-01  1.013E+05 -4.079E-08  1.319E-06  2.933E+02  2.933E+02
  1.417E-02  2.430E-01  1.013E+05 -2.904E-08 -3.158E-06  2.933E+02  2.933E+02
  1.417E-02  2.493E-01  1.013E+05 -2.049E-08 -1.487E-05  2.933E+02  2.933E+02
  1.417E-02  2.557E-01  1.013E+05 -1.576E-08 -1.476E-05  2.932E+02  2.932E+02
  1.417E-02  2.620E-01  1.013E+05 -1.349E-08 -2.981E-06  2.932E+02  2.932E+02
  1.417E-02  2.683E-01  1.013E+05 -1.204E-08  1.293E-06  2.932E+02  2.932E+02
  1.417E-02  2.746E-01  1.013E+05 -1.116E-08  4.585E-07  2.932E+02  2.932E+02
  1.417E-02  2.809E-01  1.013E+05 -1.048E-08  5.113E-07  2.931E+02  2.932E+02
  1.417E-02  2.872E-01  1.013E+05 -9.889E-09  4.271E-07  2.931E+02  2.931E+02
  1.417E-02  2.935E-01  1.013E+05 -9.318E-09  3.778E-07  2.931E+02  2.931E+02
  1.417E-02  2.998E-01  1.013E+05 -8.758E-09  3.322E-07  2.931E+02  2.931E+02
  1.417E-02  3.062E-01  1.013E+05 -8.206E-09  2.940E-07  2.931E+02  2.931E+02
  1.417E-02  3.125E-01  1.013E+05 -7.667E-09  2.611E-07  2.931E+02  2.931E+02
  1.417E-02  3.188E-01  1.013E+05 -7.144E-09  2.327E-07  2.931E+02  2.931E+02
  1.417E-02  3.251E-01  1.013E+05 -6.639E-09  2.080E-07  2.931E+02  2.931E+02
  1.417E-02  3.314E-01  1.013E+05 -6.154E-09  1.864E-07  2.931E+02  2.931E+02
  1.417E-02  3.377E-01  1.013E+05 -5.688E-09  1.674E-07  2.931E+02  2.931E+02
  1.417E-02  3.440E-01  1.013E+05 -5.242E-09  1.506E-07  2.930E+02  2.931E+02
  1.417E-02  3.503E-01  1.013E+05 -4.816E-09  1.355E-07  2.930E+02  2.930E+02
  1.417E-02  3.567E-01  1.013E+05 -4.410E-09  1.221E-07  2.930E+02  2.930E+02
  1.417E-02  3.630E-01  1.013E+05 -4.024E-09  1.100E-07  2.930E+02  2.930E+02
  1.417E-02  3.693E-01  1.013E+05 -3.658E-09  9.904E-08  2.930E+02  2.930E+02
  1.417E-02  3.756E-01  1.013E+05 -3.314E-09  8.919E-08  2.930E+02  2.930E+02
  1.417E-02  3.819E-01  1.013E+05 -2.992E-09  8.028E-08  2.930E+02  2.930E+02
  1.417E-02  3.882E-01  1.013E+05 -2.694E-09  7.223E-08  2.930E+02  2.930E+02
  1.417E-02  3.945E-01  1.013E+05 -2.419E-09  6.494E-08  2.930E+02  2.930E+02
  1.417E-02  4.008E-01  1.013E+05 -2.168E-09  5.836E-08  2.930E+02  2.930E+02
  1.417E-02  4.072E-01  1.013E+05 -1.941E-09  5.243E-08  2.930E+02  2.930E+02
  1.417E-02  4.135E-01  1.013E+05 -1.735E-09  4.709E-08  2.930E+02  2.930E+02
  1.417E-02  4.198E-01  1.013E+05 -1.549E-09  4.229E-08  2.930E+02  2.930E+02
  1.417E-02  4.261E-01  1.013E+05 -1.381E-09  3.799E-08  2.930E+02  2.930E+02
  1.417E-02  4.324E-01  1.013E+05 -1.227E-09  3.414E-08  2.930E+02  2.930E+02
  1.417E-02  4.387E-01  1.013E+05 -1.087E-09  3.067E-08  2.930E+02  2.930E+02
  1.417E-02  4.450E-01  1.013E+05 -9.580E-10  2.753E-08  2.930E+02  2.930E+02
  1.417E-02  4.513E-01  1.013E+05 -8.386E-10  2.467E-08  2.930E+02  2.930E+02
  1.417E-02  4.577E-01  1.013E+05 -7.276E-10  2.204E-08  2.930E+02  2.930E+02
  1.417E-02  4.640E-01  1.013E+05 -6.243E-10  1.960E-08  2.930E+02  2.930E+02
  1.417E-02  4.703E-01  1.013E+05 -5.274E-10  1.731E-08  2.930E+02  2.930E+02
  1.417E-02  4.766E-01  1.013E+05 -4.364E-10  1.513E-08  2.930E+02  2.930E+02
  1.417E-02  4.829E-01  1.013E+05 -3.497E-10  1.300E-08  2.930E+02  2.930E+02
  1.417E-02  4.892E-01  1.013E+05 -2.680E-10  1.104E-08  2.930E+02  2.930E+02
  1.417E-02  4.955E-01  1.013E+05 -1.822E-10  8.106E-09  2.930E+02  2.930E+02
  1.417E-02  5.018E-01  1.013E+05 -1.347E-10  1.053E-08  2.930E+02  2.930E+02
  1.417E-02  5.050E-01  1.013E+05 -1.347E-10  1.053E-08  2.930E+02  2.930E+02
  4.252E-02  0.000E+00  1.013E+05  0.000E+00  0.000E+00  2.930E+02  2.934E+02
  4.252E-02  3.156E-03  1.013E+05  1.530E-08  1.753E-06  2.932E+02  2.934E+02
  4.252E-02  9.469E-03  1.013E+05  8.906E-09  1.636E-06  2.934E+02  2.936E+02
  4.252E-02  1.578E-02  1.013E+05 -4.520E-09  2.424E-06  2.937E+02  2.938E+02
  4.252E-02  2.209E-02  1.013E+05 -2.480E-08  3.148E-06  2.940E+02  2.941E+02
  4.252E-02  2.841E-02  1.013E+05 -6.486E-08  4.858E-06  2.942E+02  2.945E+02
  4.252E-02  3.472E-02  1.013E+05 -1.177E-07  1.932E-06  2.946E+02  2.951E+02
  4.252E-02  4.103E-02  1.013E+05 -1.623E-07 -5.998E-06  2.953E+02  2.962E+02
  4.252E-02  4.734E-02  1.013E+05 -2.418E-07 -5.021E-06  2.964E+02  2.982E+02
  4.252E-02  5.366E-02  1.013E+05 -3.027E-07  3.303E-06  2.986E+02  3.018E+02
  4.252E-02  5.997E-02  1.013E+05 -4.972E-07  1.906E-06  3.026E+02  3.078E+02
  4.252E-02  6.628E-02  1.013E+05 -8.931E-07  5.077E-06  3.099E+02  3.175E+02
  4.252E-02  7.259E-02  1.013E+05  4.533E-07  1.044E-05  3.223E+02  3.332E+02
  4.252E-02  7.891E-02  1.013E+05  2.619E-06  5.673E-06  3.428E+02  3.560E+02
  4.252E-02  8.522E-02  1.013E+05  2.471E-06 -9.179E-06  3.750E+02  3.916E+02
  4.252E-02  9.153E-02  1.013E+05  2.066E-06 -1.149E-05  4.229E+02  4.440E+02
  4.252E-02  9.784E-02  1.013E+05  2.345E-06 -1.304E-04  4.898E+02  5.269E+02
  4.252E-02  1.042E-01  1.013E+05  2.504E-06  6.544E-04  5.707E+02  7.176E+02
  4.252E-02  1.105E-01  1.013E+05  2.683E-06 -1.238E-04  4.894E+02  5.289E+02
  4.252E-02  1.168E-01  1.013E+05  1.669E-06  1.534E-06  4.220E+02  4.493E+02
  4.252E-02  1.231E-01  1.013E+05 -5.827E-07  1.111E-05  3.741E+02  3.917E+02
  4.252E-02  1.294E-01  1.013E+05 -9.150E-07 -3.812E-06  3.420E+02  3.547E+02
  4.252E-02  1.357E-01  1.013E+05  1.404E-06  3.760E-06  3.216E+02  3.321E+02
  4.252E-02  1.420E-01  1.013E+05  1.466E-06  1.332E-05  3.093E+02  3.161E+02
  4.252E-02  1.483E-01  1.013E+05 -7.775E-07  1.466E-05  3.023E+02  3.064E+02
  4.252E-02  1.547E-01  1.013E+05 -1.257E-06  6.161E-06  2.984E+02  3.012E+02
  4.252E-02  1.610E-01  1.013E+05 -8.459E-07 -3.362E-07  2.963E+02  2.981E+02
  4.252E-02  1.673E-01  1.013E+05 -7.234E-07  5.340E-06  2.952E+02  2.961E+02
  4.252E-02  1.736E-01  1.013E+05 -5.762E-07  6.708E-06  2.945E+02  2.951E+02
  4.252E-02  1.799E-01  1.013E+05 -4.721E-07  4.268E-06  2.942E+02  2.945E+02
  4.252E-02  1.862E-01  1.013E+05 -3.891E-07  3.393E-06  2.940E+02  2.941E+02
  4.252E-02  1.925E-01  1.013E+05 -3.231E-07  2.729E-06  2.938E+02  2.939E+02
  4.252E-02  1.988E-01  1.013E+05 -2.691E-07  2.289E-06  2.937E+02  2.938E+02
  4.252E-02  2.052E-01  1.013E+05 -2.237E-07  1.956E-06  2.936E+02  2.937E+02
  4.252E-02  2.115E-01  1.013E+05 -1.843E-07  1.690E-06  2.936E+02  2.936E+02
  4.252E-02  2.178E-01  1.013E+05 -1.488E-07  1.461E-06  2.935E+02  2.935E+02
  4.252E-02  2.241E-01  1.013E+05 -1.154E-07  1.279E-06  2.934E+02  2.935E+02
  4.252E-02  2.304E-01  1.013E+05 -8.104E-08  9.736E-07  2.934E+02  2.934E+02
  4.252E-02  2.367E-01  1.013E+05 -4.659E-08  1.500E-06  2.934E+02  2.934E+02
  4.252E-02  2.430E-01  1.013E+05  3.349E-09 -3.007E-06  2.933E+02  2.933E+02
  4.252E-02  2.493E-01  1.013E+05  4.240E-08 -1.475E-05  2.933E+02  2.933E+02
  4.252E-02  2.557E-01  1.013E+05  2.558E-08 -1.469E-05  2.932E+02  2.932E+02
  4.252E-02  2.620E-01  1.013E+05 -7.151E-10 -2.928E-06  2.932E+02  2.932E+02
  4.252E-02  2.683E-01  1.013E+05 -9.848E-09  1.336E-06  2.932E+02  2.932E+02
  4.252E-02  2.746E-01  1.013E+05 -1.664E-08  4.947E-07  2.932E+02  2.932E+02
  4.252E-02  2.809E-01  1.013E+05 -1.977E-08  5.433E-07  2.932E+02  2.932E+02
  4.252E-02  2.872E-01  1.013E+05 -2.113E-08  4.562E-07  2.931E+02  2.931E+02
  4.252E-02  2.935E-01  1.013E+05 -2.127E-08  4.049E-07  2.931E+02  2.931E+02
  4.252E-02  2.998E-01  1.013E+05 -2.073E-08  3.575E-07  2.931E+02  2.931E+02
  4.252E-02  3.062E-01  1.013E+05 -1.980E-08  3.177E-07  2.931E+02  2.931E+02
  4.252E-02  3.125E-01  1.013E+05 -1.870E-08  2.832E-07  2.931E+02  2.931E+02
  4.252E-02  3.188E-01  1.013E+05 -1.753E-08  2.532E-07  2.931E+02  2.931E+02
  4.252E-02  3.251E-01  1.013E+05 -1.636E-08  2.269E-07  2.931E+02  2.931E+02
  4.252E-02  3.314E-01  1.013E+05 -1.521E-08  2.038E-07  2.931E+02  2.931E+02
  4.252E-02  3.377E-01  1.013E+05 -1.411E-08  1.832E-07  2.931E+02  2.931E+02
  4.252E-02  3.440E-01  1.013E+05 -1.305E-08  1.649E-07  2.930E+02  2.931E+02
  4.252E-02  3.503E-01  1.013E+05 -1.204E-08  1.485E-07  2.930E+02  2.930E+02
  4.252E-02  3.567E-01  1.013E+05 -1.106E-08  1.338E-07  2.930E+02  2.930E+02
  4.252E-02  3.630E-01  1.013E+05 -1.012E-08  1.205E-07  2.930E+02  2.930E+02
  4.252E-02  3.693E-01  1.013E+05 -9.216E-09  1.085E-07  2.930E+02  2.930E+02
  4.252E-02  3.756E-01  1.013E+05 -8.358E-09  9.768E-08  2.930E+02  2.930E+02
  4.252E-02  3.819E-01  1.013E+05 -7.547E-09  8.786E-08  2.930E+02  2.930E+02
  4.252E-02  3.882E-01  1.013E+05 -6.789E-09  7.897E-08  2.930E+02  2.930E+02
  4.252E-02  3.945E-01  1.013E+05 -6.089E-09  7.093E-08  2.930E+02  2.930E+02
  4.252E-02  4.008E-01  1.013E+05 -5.449E-09  6.366E-08  2.930E+02  2.930E+02
  4.252E-02  4.072E-01  1.013E+05 -4.870E-09  5.710E-08  2.930E+02  2.930E+02
  4.252E-02  4.135E-01  1.013E+05 -4.350E-09  5.118E-08  2.930E+02  2.930E+02
  4.252E-02  4.198E-01  1.013E+05 -3.884E-09  4.587E-08  2.930E+02  2.930E+02
  4.252E-02  4.261E-01  1.013E+05 -3.466E-09  4.110E-08  2.930E+02  2.930E+02
  4.252E-02  4.324E-01  1.013E+05 -3.089E-09  3.682E-08  2.930E+02  2.930E+02
  4.252E-02  4.387E-01  1.013E+05 -2.746E-09  3.298E-08  2.930E+02  2.930E+02
  4.252E-02  4.450E-01  1.013E+05 -2.430E-09  2.953E-08  2.930E+02  2.930E+02
  4.252E-02  4.513E-01  1.013E+05 -2.137E-09  2.640E-08  2.930E+02  2.930E+02
  4.252E-02  4.577E-01  1.013E+05 -1.863E-09  2.355E-08  2.930E+02  2.930E+02
  4.252E-02  4.640E-01  1.013E+05 -1.604E-09  2.093E-08  2.930E+02  2.930E+02
  4.252E-02  4.703E-01  1.013E+05 -1.359E-09  1.849E-08  2.930E+02  2.930E+02
  4.252E-02  4.766E-01  1.013E+05 -1.126E-09  1.620E-08  2.930E+02  2.930E+02
  4.252E-02  4.829E-01  1.013E+05 -9.026E-10  1.397E-08  2.930E+02  2.930E+02
  4.252E-02  4.892E-01  1.013E+05 -6.907E-10  1.198E-08  2.930E+02  2.930E+02
  4.252E-02  4.955E-01  1.013E+05 -4.688E-10  8.841E-09  2.930E+02  2.930E+02
  4.252E-02  5.018E-01  1.013E+05 -3.470E-10  1.203E-08  2.930E+02  2.930E+02
  4.252E-02  5.050E-01  1.013E+05 -3.470E-10  1.203E-08  2.930E+02  2.930E+02
  7.087E-02  0.000E+00  1.013E+05  0.000E+00  0.000E+00  2.930E+02  2.934E+02
  7.087E-02  3.156E-03  1.013E+05  2.219E-08  1.738E-06  2.932E+02  2.934E+02
  7.087E-02  9.469E-03  1.013E+05  1.737E-08  1.595E-06  2.934E+02  2.936E+02
  7.087E-02  1.578E-02  1.013E+05  6.767E-09  2.370E-06  2.937E+02  2.938E+02
  7.087E-02  2.209E-02  1.013E+05 -8.469E-09  3.014E-06  2.939E+02  2.941E+02
  7.087E-02  2.841E-02  1.013E+05 -4.191E-08  4.918E-06  2.942E+02  2.945E+02
  7.087E-02  3.472E-02  1.013E+05 -8.684E-08  1.724E-06  2.946E+02  2.952E+02
  7.087E-02  4.103E-02  1.013E+05 -1.180E-07 -6.506E-06  2.953E+02  2.961E+02
  7.087E-02  4.734E-02  1.013E+05 -1.826E-07 -5.098E-06  2.964E+02  2.980E+02
  7.087E-02  5.366E-02  1.013E+05 -2.157E-07  1.687E-06  2.986E+02  3.014E+02
  7.087E-02  5.997E-02  1.013E+05 -2.485E-07  4.567E-06  3.026E+02  3.068E+02
  7.087E-02  6.628E-02  1.013E+05 -3.506E-07  4.196E-06  3.098E+02  3.156E+02
  7.087E-02  7.259E-02  1.013E+05 -4.624E-07  1.080E-05  3.223E+02  3.299E+02
  7.087E-02  7.891E-02  1.013E+05 -6.361E-07 -8.358E-07  3.428E+02  3.525E+02
  7.087E-02  8.522E-02  1.013E+05 -7.162E-07 -1.632E-05  3.751E+02  3.880E+02
  7.087E-02  9.153E-02  1.013E+05 -1.352E-07 -1.711E-05  4.229E+02  4.421E+02
  7.087E-02  9.784E-02  1.013E+05  1.575E-07 -1.340E-04  4.897E+02  5.268E+02
  7.087E-02  1.042E-01  1.013E+05 -2.650E-07  6.428E-04  5.707E+02  7.175E+02
  7.087E-02  1.105E-01  1.013E+05 -7.848E-07 -1.275E-04  4.893E+02  5.270E+02
  7.087E-02  1.168E-01  1.013E+05 -5.159E-07  9.571E-06  4.222E+02  4.412E+02
  7.087E-02  1.231E-01  1.013E+05  3.570E-07  1.262E-05  3.741E+02  3.872E+02
  7.087E-02  1.294E-01  1.013E+05  2.050E-06  5.579E-06  3.420E+02  3.513E+02
  7.087E-02  1.357E-01  1.013E+05  3.517E-06  2.271E-06  3.216E+02  3.284E+02
  7.087E-02  1.420E-01  1.013E+05  2.130E-06 -6.175E-06  3.094E+02  3.150E+02
  7.087E-02  1.483E-01  1.013E+05  7.388E-07 -4.376E-06  3.023E+02  3.062E+02
  7.087E-02  1.547E-01  1.013E+05  5.967E-07  9.548E-07  2.984E+02  3.013E+02
  7.087E-02  1.610E-01  1.013E+05  3.688E-07  9.713E-08  2.963E+02  2.981E+02
  7.087E-02  1.673E-01  1.013E+05  2.250E-07  5.002E-06  2.952E+02  2.962E+02
  7.087E-02  1.736E-01  1.013E+05  1.114E-07  6.673E-06  2.946E+02  2.951E+02
  7.087E-02  1.799E-01  1.013E+05  3.517E-08  4.281E-06  2.942E+02  2.945E+02
  7.087E-02  1.862E-01  1.013E+05 -1.506E-08  3.453E-06  2.940E+02  2.942E+02
  7.087E-02  1.925E-01  1.013E+05 -4.635E-08  2.811E-06  2.938E+02  2.939E+02
  7.087E-02  1.988E-01  1.013E+05 -6.432E-08  2.382E-06  2.937E+02  2.938E+02
  7.087E-02  2.052E-01  1.013E+05 -7.279E-08  2.055E-06  2.936E+02  2.937E+02
  7.087E-02  2.115E-01  1.013E+05 -7.431E-08  1.795E-06  2.936E+02  2.936E+02
  7.087E-02  2.178E-01  1.013E+05 -7.036E-08  1.575E-06  2.935E+02  2.935E+02
  7.087E-02  2.241E-01  1.013E+05 -6.185E-08  1.415E-06  2.934E+02  2.935E+02
  7.087E-02  2.304E-01  1.013E+05 -4.778E-08  1.135E-06  2.934E+02  2.934E+02
  7.087E-02  2.367E-01  1.013E+05 -3.176E-08  1.752E-06  2.933E+02  2.934E+02
  7.087E-02  2.430E-01  1.013E+05  5.145E-09 -2.714E-06  2.933E+02  2.933E+02
  7.087E-02  2.493E-01  1.013E+05  1.350E-08 -1.473E-05  2.933E+02  2.933E+02
  7.087E-02  2.557E-01  1.013E+05  1.445E-08 -1.494E-05  2.932E+02  2.932E+02
  7.087E-02  2.620E-01  1.013E+05 -1.292E-08 -3.137E-06  2.932E+02  2.932E+02
  7.087E-02  2.683E-01  1.013E+05 -1.974E-08  1.223E-06  2.932E+02  2.932E+02
  7.087E-02  2.746E-01  1.013E+05 -2.565E-08  4.165E-07  2.932E+02  2.932E+02
  7.087E-02  2.809E-01  1.013E+05 -2.797E-08  4.979E-07  2.932E+02  2.932E+02
  7.087E-02  2.872E-01  1.013E+05 -2.870E-08  4.298E-07  2.931E+02  2.931E+02
  7.087E-02  2.935E-01  1.013E+05 -2.821E-08  3.920E-07  2.931E+02  2.931E+02
  7.087E-02  2.998E-01  1.013E+05 -2.705E-08  3.536E-07  2.931E+02  2.931E+02
  7.087E-02  3.062E-01  1.013E+05 -2.554E-08  3.198E-07  2.931E+02  2.931E+02
  7.087E-02  3.125E-01  1.013E+05 -2.390E-08  2.893E-07  2.931E+02  2.931E+02
  7.087E-02  3.188E-01  1.013E+05 -2.228E-08  2.617E-07  2.931E+02  2.931E+02
  7.087E-02  3.251E-01  1.013E+05 -2.072E-08  2.367E-07  2.931E+02  2.931E+02
  7.087E-02  3.314E-01  1.013E+05 -1.927E-08  2.140E-07  2.931E+02  2.931E+02
  7.087E-02  3.377E-01  1.013E+05 -1.790E-08  1.932E-07  2.931E+02  2.931E+02
  7.087E-02  3.440E-01  1.013E+05 -1.662E-08  1.743E-07  2.931E+02  2.931E+02
  7.087E-02  3.503E-01  1.013E+05 -1.539E-08  1.570E-07  2.930E+02  2.930E+02
  7.087E-02  3.567E-01  1.013E+05 -1.421E-08  1.412E-07  2.930E+02  2.930E+02
  7.087E-02  3.630E-01  1.013E+05 -1.306E-08  1.269E-07  2.930E+02  2.930E+02
  7.087E-02  3.693E-01  1.013E+05 -1.196E-08  1.138E-07  2.930E+02  2.930E+02
  7.087E-02  3.756E-01  1.013E+05 -1.090E-08  1.021E-07  2.930E+02  2.930E+02
  7.087E-02  3.819E-01  1.013E+05 -9.890E-09  9.152E-08  2.930E+02  2.930E+02
  7.087E-02  3.882E-01  1.013E+05 -8.942E-09  8.204E-08  2.930E+02  2.930E+02
  7.087E-02  3.945E-01  1.013E+05 -8.062E-09  7.358E-08  2.930E+02  2.930E+02
  7.087E-02  4.008E-01  1.013E+05 -7.255E-09  6.604E-08  2.930E+02  2.930E+02
  7.087E-02  4.072E-01  1.013E+05 -6.522E-09  5.931E-08  2.930E+02  2.930E+02
  7.087E-02  4.135E-01  1.013E+05 -5.859E-09  5.332E-08  2.930E+02  2.930E+02
  7.087E-02  4.198E-01  1.013E+05 -5.260E-09  4.797E-08  2.930E+02  2.930E+02
  7.087E-02  4.261E-01  1.013E+05 -4.718E-09  4.318E-08  2.930E+02  2.930E+02
  7.087E-02  4.324E-01  1.013E+05 -4.224E-09  3.887E-08  2.930E+02  2.930E+02
  7.087E-02  4.387E-01  1.013E+05 -3.769E-09  3.499E-08  2.930E+02  2.930E+02
  7.087E-02  4.450E-01  1.013E+05 -3.345E-09  3.146E-08  2.930E+02  2.930E+02
  7.087E-02  4.513E-01  1.013E+05 -2.947E-09  2.825E-08  2.930E+02  2.930E+02
  7.087E-02  4.577E-01  1.013E+05 -2.570E-09  2.529E-08  2.930E+02  2.930E+02
  7.087E-02  4.640E-01  1.013E+05 -2.212E-09  2.256E-08  2.930E+02  2.930E+02
  7.087E-02  4.703E-01  1.013E+05 -1.870E-09  2.002E-08  2.930E+02  2.930E+02
  7.087E-02  4.766E-01  1.013E+05 -1.545E-09  1.764E-08  2.930E+02  2.930E+02
  7.087E-02  4.829E-01  1.013E+05 -1.234E-09  1.532E-08  2.930E+02  2.930E+02
  7.087E-02  4.892E-01  1.013E+05 -9.392E-10  1.330E-08  2.930E+02  2.930E+02
  7.087E-02  4.955E-01  1.013E+05 -6.337E-10  9.892E-09  2.930E+02  2.930E+02
  7.087E-02  5.018E-01  1.013E+05 -4.679E-10  1.434E-08  2.930E+02  2.930E+02
  7.087E-02  5.050E-01  1.013E+05 -4.679E-10  1.434E-08  2.930E+02  2.930E+02
  9.922E-02  0.000E+00  1.013E+05  0.000E+00  0.000E+00  2.930E+02  2.934E+02
  9.922E-02  3.156E-03  1.013E+05  6.828E-08  1.743E-06  2.932E+02  2.934E+02
  9.922E-02  9.469E-03  1.013E+05  6.324E-08  1.585E-06  2.934E+02  2.936E+02
  9.922E-02  1.578E-02  1.013E+05  5.463E-08  2.352E-06  2.937E+02  2.938E+02
  9.922E-02  2.209E-02  1.013E+05  3.971E-08  2.979E-06  2.940E+02  2.941E+02
  9.922E-02  2.841E-02  1.013E+05  1.273E-08  4.863E-06  2.943E+02  2.946E+02
  9.922E-02  3.472E-02  1.013E+05 -2.775E-08  1.629E-06  2.946E+02  2.953E+02
  9.922E-02  4.103E-02  1.013E+05 -6.462E-08 -6.702E-06  2.953E+02  2.964E+02
  9.922E-02  4.734E-02  1.013E+05 -1.542E-07 -5.292E-06  2.965E+02  2.985E+02
  9.922E-02  5.366E-02  1.013E+05 -3.794E-07  1.333E-06  2.986E+02  3.026E+02
  9.922E-02  5.997E-02  1.013E+05 -4.451E-07  1.003E-06  3.026E+02  3.088E+02
  9.922E-02  6.628E-02  1.013E+05 -4.315E-07  4.011E-06  3.099E+02  3.181E+02
  9.922E-02  7.259E-02  1.013E+05 -4.136E-07  9.205E-06  3.223E+02  3.331E+02
  9.922E-02  7.891E-02  1.013E+05 -3.611E-07  4.616E-06  3.428E+02  3.564E+02
  9.922E-02  8.522E-02  1.013E+05 -7.143E-08 -1.662E-05  3.750E+02  3.927E+02
  9.922E-02  9.153E-02  1.013E+05 -1.128E-06 -2.699E-05  4.229E+02  4.465E+02
  9.922E-02  9.784E-02  1.013E+05 -2.661E-06 -1.357E-04  4.898E+02  5.276E+02
  9.922E-02  1.042E-01  1.013E+05 -1.684E-06  6.495E-04  5.707E+02  7.178E+02
  9.922E-02  1.105E-01  1.013E+05 -1.078E-06 -1.333E-04  4.894E+02  5.278E+02
  9.922E-02  1.168E-01  1.013E+05 -3.697E-07 -2.437E-05  4.222E+02  4.451E+02
  9.922E-02  1.231E-01  1.013E+05  1.490E-06 -1.492E-05  3.742E+02  3.899E+02
  9.922E-02  1.294E-01  1.013E+05  2.396E-06 -6.908E-06  3.420E+02  3.528E+02
  9.922E-02  1.357E-01  1.013E+05  1.074E-06 -1.389E-05  3.216E+02  3.292E+02
  9.922E-02  1.420E-01  1.013E+05 -6.140E-07 -9.639E-06  3.093E+02  3.157E+02
  9.922E-02  1.483E-01  1.013E+05  3.965E-07  6.724E-06  3.023E+02  3.063E+02
  9.922E-02  1.547E-01  1.013E+05  1.004E-06  3.533E-06  2.984E+02  3.011E+02
  9.922E-02  1.610E-01  1.013E+05  5.642E-07 -2.705E-06  2.963E+02  2.980E+02
  9.922E-02  1.673E-01  1.013E+05  4.271E-07  4.042E-06  2.951E+02  2.961E+02
  9.922E-02  1.736E-01  1.013E+05  2.709E-07  5.830E-06  2.945E+02  2.951E+02
  9.922E-02  1.799E-01  1.013E+05  1.669E-07  3.701E-06  2.942E+02  2.945E+02
  9.922E-02  1.862E-01  1.013E+05  9.238E-08  3.027E-06  2.940E+02  2.941E+02
  9.922E-02  1.925E-01  1.013E+05  4.122E-08  2.506E-06  2.938E+02  2.939E+02
  9.922E-02  1.988E-01  1.013E+05  6.388E-09  2.167E-06  2.937E+02  2.938E+02
  9.922E-02  2.052E-01  1.013E+05 -1.686E-08  1.907E-06  2.936E+02  2.937E+02
  9.922E-02  2.115E-01  1.013E+05 -3.200E-08  1.697E-06  2.936E+02  2.936E+02
  9.922E-02  2.178E-01  1.013E+05 -4.149E-08  1.512E-06  2.935E+02  2.935E+02
  9.922E-02  2.241E-01  1.013E+05 -4.730E-08  1.375E-06  2.934E+02  2.935E+02
  9.922E-02  2.304E-01  1.013E+05 -5.075E-08  1.103E-06  2.934E+02  2.934E+02
  9.922E-02  2.367E-01  1.013E+05 -5.468E-08  1.732E-06  2.934E+02  2.934E+02
  9.922E-02  2.430E-01  1.013E+05 -5.524E-08 -2.812E-06  2.933E+02  2.933E+02
  9.922E-02  2.493E-01  1.013E+05 -7.725E-08 -1.472E-05  2.933E+02  2.933E+02
  9.922E-02  2.557E-01  1.013E+05 -5.354E-08 -1.483E-05  2.932E+02  2.932E+02
  9.922E-02  2.620E-01  1.013E+05 -5.150E-08 -3.110E-06  2.932E+02  2.932E+02
  9.922E-02  2.683E-01  1.013E+05 -4.649E-08  1.247E-06  2.932E+02  2.932E+02
  9.922E-02  2.746E-01  1.013E+05 -4.342E-08  4.256E-07  2.932E+02  2.932E+02
  9.922E-02  2.809E-01  1.013E+05 -4.055E-08  5.017E-07  2.931E+02  2.932E+02
  9.922E-02  2.872E-01  1.013E+05 -3.793E-08  4.293E-07  2.931E+02  2.931E+02
  9.922E-02  2.935E-01  1.013E+05 -3.542E-08  3.894E-07  2.931E+02  2.931E+02
  9.922E-02  2.998E-01  1.013E+05 -3.297E-08  3.503E-07  2.931E+02  2.931E+02
  9.922E-02  3.062E-01  1.013E+05 -3.060E-08  3.168E-07  2.931E+02  2.931E+02
  9.922E-02  3.125E-01  1.013E+05 -2.835E-08  2.872E-07  2.931E+02  2.931E+02
  9.922E-02  3.188E-01  1.013E+05 -2.624E-08  2.608E-07  2.931E+02  2.931E+02
  9.922E-02  3.251E-01  1.013E+05 -2.428E-08  2.371E-07  2.931E+02  2.931E+02
  9.922E-02  3.314E-01  1.013E+05 -2.246E-08  2.154E-07  2.931E+02  2.931E+02
  9.922E-02  3.377E-01  1.013E+05 -2.077E-08  1.954E-07  2.931E+02  2.931E+02