VARIABLES="XP","YP","P","U","V","TS","TF"
ZONE T="Zone 001"I=    82 J=    12 F=POINT
  0.000E+00  0.000E+00  1.019E+05  0.000E+00  0.000E+00  2.930E+02  2.930E+02
  0.000E+00  3.156E-03  1.019E+05  0.000E+00  0.000E+00  2.930E+02  2.930E+02
  0.000E+00  9.469E-03  1.019E+05  0.000E+00  0.000E+00  2.931E+02  2.931E+02
  0.000E+00  1.578E-02  1.019E+05  0.000E+00  0.000E+00  2.931E+02  2.931E+02
  0.000E+00  2.209E-02  1.019E+05  0.000E+00  0.000E+00  2.932E+02  2.932E+02
  0.000E+00  2.841E-02  1.019E+05  0.000E+00  0.000E+00  2.934E+02  2.933E+02
  0.000E+00  3.472E-02  1.019E+05  0.000E+00  0.000E+00  2.936E+02  2.935E+02
  0.000E+00  4.103E-02  1.019E+05  0.000E+00  0.000E+00  2.940E+02  2.938E+02
  0.000E+00  4.734E-02  1.019E+05  0.000E+00  0.000E+00  2.946E+02  2.943E+02
  0.000E+00  5.366E-02  1.018E+05  0.000E+00  0.000E+00  2.955E+02  2.950E+02
  0.000E+00  5.997E-02  1.018E+05  0.000E+00  0.000E+00  2.968E+02  2.961E+02
  0.000E+00  6.628E-02  1.018E+05  0.000E+00  0.000E+00  2.989E+02  2.978E+02
  0.000E+00  7.259E-02  1.018E+05  0.000E+00  0.000E+00  3.018E+02  3.002E+02
  0.000E+00  7.891E-02  1.018E+05  0.000E+00  0.000E+00  3.061E+02  3.038E+02
  0.000E+00  8.522E-02  1.018E+05  0.000E+00  0.000E+00  3.122E+02  3.088E+02
  0.000E+00  9.153E-02  1.018E+05  0.000E+00  0.000E+00  3.203E+02  3.157E+02
  0.000E+00  9.784E-02  1.018E+05  0.000E+00  0.000E+00  3.310E+02  3.249E+02
  0.000E+00  1.042E-01  1.018E+05  0.000E+00  0.000E+00  3.440E+02  3.363E+02
  0.000E+00  1.105E-01  1.018E+05  0.000E+00  0.000E+00  3.591E+02  3.499E+02
  0.000E+00  1.168E-01  1.018E+05  0.000E+00  0.000E+00  3.755E+02  3.652E+02
  0.000E+00  1.231E-01  1.018E+05  0.000E+00  0.000E+00  3.923E+02  3.814E+02
  0.000E+00  1.294E-01  1.018E+05  0.000E+00  0.000E+00  4.084E+02  3.975E+02
  0.000E+00  1.357E-01  1.018E+05  0.000E+00  0.000E+00  4.229E+02  4.126E+02
  0.000E+00  1.420E-01  1.017E+05  0.000E+00  0.000E+00  4.349E+02  4.259E+02
  0.000E+00  1.483E-01  1.017E+05  0.000E+00  0.000E+00  4.439E+02  4.366E+02
  0.000E+00  1.547E-01  1.017E+05  0.000E+00  0.000E+00  4.496E+02  4.443E+02
  0.000E+00  1.610E-01  1.017E+05  0.000E+00  0.000E+00  4.517E+02  4.486E+02
  0.000E+00  1.673E-01  1.017E+05  0.000E+00  0.000E+00  4.505E+02  4.497E+02
  0.000E+00  1.736E-01  1.017E+05  0.000E+00  0.000E+00  4.463E+02  4.476E+02
  0.000E+00  1.799E-01  1.017E+05  0.000E+00  0.000E+00  4.395E+02  4.427E+02
  0.000E+00  1.862E-01  1.017E+05  0.000E+00  0.000E+00  4.307E+02  4.355E+02
  0.000E+00  1.925E-01  1.017E+05  0.000E+00  0.000E+00  4.204E+02  4.265E+02
  0.000E+00  1.988E-01  1.017E+05  0.000E+00  0.000E+00  4.091E+02  4.161E+02
  0.000E+00  2.052E-01  1.017E+05  0.000E+00  0.000E+00  3.974E+02  4.050E+02
  0.000E+00  2.115E-01  1.017E+05  0.000E+00  0.000E+00  3.857E+02  3.935E+02
  0.000E+00  2.178E-01  1.017E+05  0.000E+00  0.000E+00  3.742E+02  3.820E+02
  0.000E+00  2.241E-01  1.017E+05  0.000E+00  0.000E+00  3.634E+02  3.709E+02
  0.000E+00  2.304E-01  1.016E+05  0.000E+00  0.000E+00  3.534E+02  3.605E+02
  0.000E+00  2.367E-01  1.016E+05  0.000E+00  0.000E+00  3.442E+02  3.508E+02
  0.000E+00  2.430E-01  1.016E+05  0.000E+00  0.000E+00  3.360E+02  3.420E+02
  0.000E+00  2.493E-01  1.016E+05  0.000E+00  0.000E+00  3.288E+02  3.342E+02
  0.000E+00  2.557E-01  1.016E+05  0.000E+00  0.000E+00  3.226E+02  3.273E+02
  0.000E+00  2.620E-01  1.016E+05  0.000E+00  0.000E+00  3.172E+02  3.213E+02
  0.000E+00  2.683E-01  1.016E+05  0.000E+00  0.000E+00  3.127E+02  3.162E+02
  0.000E+00  2.746E-01  1.016E+05  0.000E+00  0.000E+00  3.089E+02  3.118E+02
  0.000E+00  2.809E-01  1.016E+05  0.000E+00  0.000E+00  3.057E+02  3.082E+02
  0.000E+00  2.872E-01  1.016E+05  0.000E+00  0.000E+00  3.031E+02  3.052E+02
  0.000E+00  2.935E-01  1.016E+05  0.000E+00  0.000E+00  3.010E+02  3.027E+02
  0.000E+00  2.998E-01  1.016E+05  0.000E+00  0.000E+00  2.993E+02  3.007E+02
  0.000E+00  3.062E-01  1.016E+05  0.000E+00  0.000E+00  2.980E+02  2.991E+02
  0.000E+00  3.125E-01  1.015E+05  0.000E+00  0.000E+00  2.969E+02  2.978E+02
  0.000E+00  3.188E-01  1.015E+05  0.000E+00  0.000E+00  2.960E+02  2.967E+02
  0.000E+00  3.251E-01  1.015E+05  0.000E+00  0.000E+00  2.954E+02  2.959E+02
  0.000E+00  3.314E-01  1.015E+05  0.000E+00  0.000E+00  2.948E+02  2.953E+02
  0.000E+00  3.377E-01  1.015E+05  0.000E+00  0.000E+00  2.944E+02  2.948E+02
  0.000E+00  3.440E-01  1.015E+05  0.000E+00  0.000E+00  2.941E+02  2.944E+02
  0.000E+00  3.503E-01  1.015E+05  0.000E+00  0.000E+00  2.939E+02  2.941E+02
  0.000E+00  3.567E-01  1.015E+05  0.000E+00  0.000E+00  2.937E+02  2.938E+02
  0.000E+00  3.630E-01  1.015E+05  0.000E+00  0.000E+00  2.935E+02  2.937E+02
  0.000E+00  3.693E-01  1.015E+05  0.000E+00  0.000E+00  2.934E+02  2.935E+02
  0.000E+00  3.756E-01  1.015E+05  0.000E+00  0.000E+00  2.933E+02  2.934E+02
  0.000E+00  3.819E-01  1.015E+05  0.000E+00  0.000E+00  2.933E+02  2.933E+02
  0.000E+00  3.882E-01  1.015E+05  0.000E+00  0.000E+00  2.932E+02  2.933E+02
  0.000E+00  3.945E-01  1.015E+05  0.000E+00  0.000E+00  2.932E+02  2.932E+02
  0.000E+00  4.008E-01  1.014E+05  0.000E+00  0.000E+00  2.931E+02  2.932E+02
  0.000E+00  4.072E-01  1.014E+05  0.000E+00  0.000E+00  2.931E+02  2.931E+02
  0.000E+00  4.135E-01  1.014E+05  0.000E+00  0.000E+00  2.931E+02  2.931E+02
  0.000E+00  4.198E-01  1.014E+05  0.000E+00  0.000E+00  2.931E+02  2.931E+02
  0.000E+00  4.261E-01  1.014E+05  0.000E+00  0.000E+00  2.931E+02  2.931E+02
  0.000E+00  4.324E-01  1.014E+05  0.000E+00  0.000E+00  2.931E+02  2.931E+02
  0.000E+00  4.387E-01  1.014E+05  0.000E+00  0.000E+00  2.931E+02  2.931E+02
  0.000E+00  4.450E-01  1.014E+05  0.000E+00  0.000E+00  2.930E+02  2.931E+02
  0.000E+00  4.513E-01  1.014E+05  0.000E+00  0.000E+00  2.930E+02  2.930E+02
  0.000E+00  4.577E-01  1.014E+05  0.000E+00  0.000E+00  2.930E+02  2.930E+02
  0.000E+00  4.640E-01  1.014E+05  0.000E+00  0.000E+00  2.930E+02  2.930E+02
  0.000E+00  4.703E-01  1.014E+05  0.000E+00  0.000E+00  2.930E+02  2.930E+02
  0.000E+00  4.766E-01  1.014E+05  0.000E+00  0.000E+00  2.930E+02  2.930E+02
  0.000E+00  4.829E-01  1.014E+05  0.000E+00  0.000E+00  2.930E+02  2.930E+02
  0.000E+00  4.892E-01  1.013E+05  0.000E+00  0.000E+00  2.930E+02  2.930E+02
  0.000E+00  4.955E-01  1.013E+05  0.000E+00  0.000E+00  2.930E+02  2.930E+02
  0.000E+00  5.018E-01  1.013E+05  0.000E+00  0.000E+00  2.930E+02  2.930E+02
  0.000E+00  5.050E-01  1.013E+05  0.000E+00  0.000E+00  2.930E+02  2.930E+02
  1.417E-02  0.000E+00  1.019E+05  8.283E-08  6.500E-02  2.930E+02  2.930E+02
  1.417E-02  3.156E-03  1.019E+05  8.283E-08  6.502E-02  2.930E+02  2.930E+02
  1.417E-02  9.469E-03  1.019E+05  6.265E-08  6.500E-02  2.931E+02  2.931E+02
  1.417E-02  1.578E-02  1.019E+05  5.011E-08  6.500E-02  2.931E+02  2.931E+02
  1.417E-02  2.209E-02  1.019E+05  3.986E-08  6.500E-02  2.932E+02  2.932E+02
  1.417E-02  2.841E-02  1.019E+05  3.194E-08  6.500E-02  2.934E+02  2.933E+02
  1.417E-02  3.472E-02  1.019E+05  2.573E-08  6.500E-02  2.936E+02  2.935E+02
  1.417E-02  4.103E-02  1.019E+05  2.084E-08  6.499E-02  2.940E+02  2.938E+02
  1.417E-02  4.734E-02  1.019E+05  1.697E-08  6.500E-02  2.946E+02  2.943E+02
  1.417E-02  5.366E-02  1.018E+05  1.390E-08  6.500E-02  2.955E+02  2.950E+02
  1.417E-02  5.997E-02  1.018E+05  1.146E-08  6.499E-02  2.968E+02  2.961E+02
  1.417E-02  6.628E-02  1.018E+05  9.518E-09  6.499E-02  2.989E+02  2.978E+02
  1.417E-02  7.259E-02  1.018E+05  7.948E-09  6.499E-02  3.018E+02  3.002E+02
  1.417E-02  7.891E-02  1.018E+05  6.696E-09  6.498E-02  3.061E+02  3.038E+02
  1.417E-02  8.522E-02  1.018E+05  5.666E-09  6.499E-02  3.122E+02  3.088E+02
  1.417E-02  9.153E-02  1.018E+05  4.858E-09  6.498E-02  3.203E+02  3.157E+02
  1.417E-02  9.784E-02  1.018E+05  4.262E-09  6.497E-02  3.310E+02  3.249E+02
  1.417E-02  1.042E-01  1.018E+05  3.847E-09  6.497E-02  3.440E+02  3.363E+02
  1.417E-02  1.105E-01  1.018E+05  3.633E-09  6.497E-02  3.591E+02  3.499E+02
  1.417E-02  1.168E-01  1.018E+05  3.612E-09  6.496E-02  3.755E+02  3.652E+02
  1.417E-02  1.231E-01  1.018E+05  3.755E-09  6.495E-02  3.923E+02  3.814E+02
  1.417E-02  1.294E-01  1.018E+05  4.029E-09  6.496E-02  4.084E+02  3.975E+02
  1.417E-02  1.357E-01  1.018E+05  4.439E-09  6.496E-02  4.229E+02  4.126E+02
  1.417E-02  1.420E-01  1.017E+05  4.932E-09  6.496E-02  4.349E+02  4.259E+02
  1.417E-02  1.483E-01  1.017E+05  5.450E-09  6.496E-02  4.439E+02  4.366E+02
  1.417E-02  1.547E-01  1.017E+05  5.933E-09  6.498E-02  4.496E+02  4.443E+02
  1.417E-02  1.610E-01  1.017E+05  6.313E-09  6.500E-02  4.517E+02  4.486E+02
  1.417E-02  1.673E-01  1.017E+05  6.554E-09  6.500E-02  4.505E+02  4.497E+02
  1.417E-02  1.736E-01  1.017E+05  6.636E-09  6.501E-02  4.463E+02  4.476E+02
  1.417E-02  1.799E-01  1.017E+05  6.505E-09  6.502E-02  4.395E+02  4.427E+02
  1.417E-02  1.862E-01  1.017E+05  6.151E-09  6.501E-02  4.307E+02  4.355E+02
  1.417E-02  1.925E-01  1.017E+05  5.610E-09  6.502E-02  4.204E+02  4.265E+02
  1.417E-02  1.988E-01  1.017E+05  4.871E-09  6.503E-02  4.091E+02  4.161E+02
  1.417E-02  2.052E-01  1.017E+05  4.006E-09  6.504E-02  3.974E+02  4.050E+02
  1.417E-02  2.115E-01  1.017E+05  3.039E-09  6.503E-02  3.857E+02  3.935E+02
  1.417E-02  2.178E-01  1.017E+05  2.037E-09  6.503E-02  3.742E+02  3.820E+02
  1.417E-02  2.241E-01  1.017E+05  1.047E-09  6.503E-02  3.634E+02  3.709E+02
  1.417E-02  2.304E-01  1.016E+05  6.863E-11  6.502E-02  3.534E+02  3.605E+02
  1.417E-02  2.367E-01  1.016E+05 -8.405E-10  6.502E-02  3.442E+02  3.508E+02
  1.417E-02  2.430E-01  1.016E+05 -1.633E-09  6.502E-02  3.360E+02  3.420E+02
  1.417E-02  2.493E-01  1.016E+05 -2.305E-09  6.502E-02  3.288E+02  3.342E+02
  1.417E-02  2.557E-01  1.016E+05 -2.880E-09  6.502E-02  3.226E+02  3.273E+02
  1.417E-02  2.620E-01  1.016E+05 -3.321E-09  6.502E-02  3.172E+02  3.213E+02
  1.417E-02  2.683E-01  1.016E+05 -3.630E-09  6.501E-02  3.127E+02  3.162E+02
  1.417E-02  2.746E-01  1.016E+05 -3.814E-09  6.501E-02  3.089E+02  3.118E+02
  1.417E-02  2.809E-01  1.016E+05 -3.880E-09  6.502E-02  3.057E+02  3.082E+02
  1.417E-02  2.872E-01  1.016E+05 -3.869E-09  6.501E-02  3.031E+02  3.052E+02
  1.417E-02  2.935E-01  1.016E+05 -3.769E-09  6.500E-02  3.010E+02  3.027E+02
  1.417E-02  2.998E-01  1.016E+05 -3.604E-09  6.500E-02  2.993E+02  3.007E+02
  1.417E-02  3.062E-01  1.016E+05 -3.391E-09  6.500E-02  2.980E+02  2.991E+02
  1.417E-02  3.125E-01  1.015E+05 -3.146E-09  6.501E-02  2.969E+02  2.978E+02
  1.417E-02  3.188E-01  1.015E+05 -2.888E-09  6.501E-02  2.960E+02  2.967E+02
  1.417E-02  3.251E-01  1.015E+05 -2.619E-09  6.501E-02  2.954E+02  2.959E+02
  1.417E-02  3.314E-01  1.015E+05 -2.381E-09  6.500E-02  2.948E+02  2.953E+02
  1.417E-02  3.377E-01  1.015E+05 -2.134E-09  6.500E-02  2.944E+02  2.948E+02
  1.417E-02  3.440E-01  1.015E+05 -1.889E-09  6.500E-02  2.941E+02  2.944E+02
  1.417E-02  3.503E-01  1.015E+05 -1.669E-09  6.500E-02  2.939E+02  2.941E+02
  1.417E-02  3.567E-01  1.015E+05 -1.476E-09  6.500E-02  2.937E+02  2.938E+02
  1.417E-02  3.630E-01  1.015E+05 -1.313E-09  6.500E-02  2.935E+02  2.937E+02
  1.417E-02  3.693E-01  1.015E+05 -1.162E-09  6.500E-02  2.934E+02  2.935E+02
  1.417E-02  3.756E-01  1.015E+05 -1.020E-09  6.500E-02  2.933E+02  2.934E+02
  1.417E-02  3.819E-01  1.015E+05 -9.147E-10  6.500E-02  2.933E+02  2.933E+02
  1.417E-02  3.882E-01  1.015E+05 -8.172E-10  6.500E-02  2.932E+02  2.933E+02
  1.417E-02  3.945E-01  1.015E+05 -7.271E-10  6.500E-02  2.932E+02  2.932E+02
  1.417E-02  4.008E-01  1.014E+05 -6.675E-10  6.500E-02  2.931E+02  2.932E+02
  1.417E-02  4.072E-01  1.014E+05 -6.121E-10  6.500E-02  2.931E+02  2.931E+02
  1.417E-02  4.135E-01  1.014E+05 -5.634E-10  6.500E-02  2.931E+02  2.931E+02
  1.417E-02  4.198E-01  1.014E+05 -5.201E-10  6.501E-02  2.931E+02  2.931E+02
  1.417E-02  4.261E-01  1.014E+05 -4.808E-10  6.500E-02  2.931E+02  2.931E+02
  1.417E-02  4.324E-01  1.014E+05 -4.415E-10  6.500E-02  2.931E+02  2.931E+02
  1.417E-02  4.387E-01  1.014E+05 -4.038E-10  6.500E-02  2.931E+02  2.931E+02
  1.417E-02  4.450E-01  1.014E+05 -3.601E-10  6.500E-02  2.930E+02  2.931E+02
  1.417E-02  4.513E-01  1.014E+05 -3.374E-10  6.500E-02  2.930E+02  2.930E+02
  1.417E-02  4.577E-01  1.014E+05 -3.132E-10  6.500E-02  2.930E+02  2.930E+02
  1.417E-02  4.640E-01  1.014E+05 -2.626E-10  6.500E-02  2.930E+02  2.930E+02
  1.417E-02  4.703E-01  1.014E+05 -2.303E-10  6.500E-02  2.930E+02  2.930E+02
  1.417E-02  4.766E-01  1.014E+05 -2.175E-10  6.500E-02  2.930E+02  2.930E+02
  1.417E-02  4.829E-01  1.014E+05 -1.749E-10  6.500E-02  2.930E+02  2.930E+02
  1.417E-02  4.892E-01  1.013E+05 -1.296E-10  6.500E-02  2.930E+02  2.930E+02
  1.417E-02  4.955E-01  1.013E+05 -9.673E-11  6.500E-02  2.930E+02  2.930E+02
  1.417E-02  5.018E-01  1.013E+05 -7.341E-11  6.500E-02  2.930E+02  2.930E+02
  1.417E-02  5.050E-01  1.013E+05 -7.341E-11  6.500E-02  2.930E+02  2.930E+02
  4.252E-02  0.000E+00  1.019E+05  1.063E-07  6.500E-02  2.930E+02  2.930E+02
  4.252E-02  3.156E-03  1.019E+05  1.063E-07  6.502E-02  2.930E+02  2.930E+02
  4.252E-02  9.469E-03  1.019E+05  8.508E-08  6.500E-02  2.931E+02  2.931E+02
  4.252E-02  1.578E-02  1.019E+05  7.106E-08  6.500E-02  2.931E+02  2.931E+02
  4.252E-02  2.209E-02  1.019E+05  5.907E-08  6.500E-02  2.932E+02  2.932E+02
  4.252E-02  2.841E-02  1.019E+05  4.933E-08  6.500E-02  2.934E+02  2.933E+02
  4.252E-02  3.472E-02  1.019E+05  4.133E-08  6.500E-02  2.936E+02  2.935E+02
  4.252E-02  4.103E-02  1.019E+05  3.477E-08  6.499E-02  2.940E+02  2.938E+02
  4.252E-02  4.734E-02  1.019E+05  2.935E-08  6.500E-02  2.946E+02  2.943E+02
  4.252E-02  5.366E-02  1.018E+05  2.488E-08  6.500E-02  2.955E+02  2.950E+02
  4.252E-02  5.997E-02  1.018E+05  2.122E-08  6.500E-02  2.968E+02  2.961E+02
  4.252E-02  6.628E-02  1.018E+05  1.821E-08  6.499E-02  2.989E+02  2.978E+02
  4.252E-02  7.259E-02  1.018E+05  1.575E-08  6.499E-02  3.018E+02  3.002E+02
  4.252E-02  7.891E-02  1.018E+05  1.374E-08  6.499E-02  3.061E+02  3.038E+02
  4.252E-02  8.522E-02  1.018E+05  1.210E-08  6.499E-02  3.122E+02  3.088E+02
  4.252E-02  9.153E-02  1.018E+05  1.085E-08  6.498E-02  3.203E+02  3.157E+02
  4.252E-02  9.784E-02  1.018E+05  9.916E-09  6.497E-02  3.310E+02  3.249E+02
  4.252E-02  1.042E-01  1.018E+05  9.278E-09  6.497E-02  3.440E+02  3.363E+02
  4.252E-02  1.105E-01  1.018E+05  8.949E-09  6.497E-02  3.591E+02  3.499E+02
  4.252E-02  1.168E-01  1.018E+05  8.901E-09  6.496E-02  3.755E+02  3.652E+02
  4.252E-02  1.231E-01  1.018E+05  9.086E-09  6.496E-02  3.923E+02  3.814E+02
  4.252E-02  1.294E-01  1.018E+05  9.456E-09  6.496E-02  4.084E+02  3.975E+02
  4.252E-02  1.357E-01  1.018E+05  9.967E-09  6.496E-02  4.229E+02  4.126E+02
  4.252E-02  1.420E-01  1.017E+05  1.056E-08  6.496E-02  4.349E+02  4.259E+02
  4.252E-02  1.483E-01  1.017E+05  1.114E-08  6.496E-02  4.439E+02  4.366E+02
  4.252E-02  1.547E-01  1.017E+05  1.159E-08  6.498E-02  4.496E+02  4.443E+02
  4.252E-02  1.610E-01  1.017E+05  1.184E-08  6.500E-02  4.517E+02  4.486E+02
  4.252E-02  1.673E-01  1.017E+05  1.185E-08  6.500E-02  4.505E+02  4.497E+02
  4.252E-02  1.736E-01  1.017E+05  1.155E-08  6.501E-02  4.463E+02  4.476E+02
  4.252E-02  1.799E-01  1.017E+05  1.092E-08  6.502E-02  4.395E+02  4.427E+02
  4.252E-02  1.862E-01  1.017E+05  9.946E-09  6.502E-02  4.307E+02  4.355E+02
  4.252E-02  1.925E-01  1.017E+05  8.665E-09  6.502E-02  4.204E+02  4.265E+02
  4.252E-02  1.988E-01  1.017E+05  7.140E-09  6.503E-02  4.091E+02  4.161E+02
  4.252E-02  2.052E-01  1.017E+05  5.444E-09  6.504E-02  3.974E+02  4.050E+02
  4.252E-02  2.115E-01  1.017E+05  3.650E-09  6.503E-02  3.857E+02  3.935E+02
  4.252E-02  2.178E-01  1.017E+05  1.859E-09  6.504E-02  3.742E+02  3.820E+02
  4.252E-02  2.241E-01  1.017E+05  1.513E-10  6.503E-02  3.634E+02  3.709E+02
  4.252E-02  2.304E-01  1.016E+05 -1.402E-09  6.502E-02  3.534E+02  3.605E+02
  4.252E-02  2.367E-01  1.016E+05 -2.787E-09  6.502E-02  3.442E+02  3.508E+02
  4.252E-02  2.430E-01  1.016E+05 -3.978E-09  6.502E-02  3.360E+02  3.420E+02
  4.252E-02  2.493E-01  1.016E+05 -4.939E-09  6.502E-02  3.288E+02  3.342E+02
  4.252E-02  2.557E-01  1.016E+05 -5.683E-09  6.502E-02  3.226E+02  3.273E+02
  4.252E-02  2.620E-01  1.016E+05 -6.193E-09  6.502E-02  3.172E+02  3.213E+02
  4.252E-02  2.683E-01  1.016E+05 -6.475E-09  6.501E-02  3.127E+02  3.162E+02
  4.252E-02  2.746E-01  1.016E+05 -6.559E-09  6.501E-02  3.089E+02  3.119E+02
  4.252E-02  2.809E-01  1.016E+05 -6.489E-09  6.502E-02  3.057E+02  3.082E+02
  4.252E-02  2.872E-01  1.016E+05 -6.288E-09  6.501E-02  3.032E+02  3.052E+02
  4.252E-02  2.935E-01  1.016E+05 -5.964E-09  6.500E-02  3.010E+02  3.027E+02
  4.252E-02  2.998E-01  1.016E+05 -5.555E-09  6.500E-02  2.993E+02  3.007E+02
  4.252E-02  3.062E-01  1.016E+05 -5.098E-09  6.500E-02  2.980E+02  2.991E+02
  4.252E-02  3.125E-01  1.015E+05 -4.621E-09  6.501E-02  2.969E+02  2.978E+02
  4.252E-02  3.188E-01  1.015E+05 -4.132E-09  6.501E-02  2.960E+02  2.968E+02
  4.252E-02  3.251E-01  1.015E+05 -3.663E-09  6.501E-02  2.954E+02  2.959E+02
  4.252E-02  3.314E-01  1.015E+05 -3.207E-09  6.500E-02  2.948E+02  2.953E+02
  4.252E-02  3.377E-01  1.015E+05 -2.765E-09  6.500E-02  2.944E+02  2.948E+02
  4.252E-02  3.440E-01  1.015E+05 -2.364E-09  6.500E-02  2.941E+02  2.944E+02
  4.252E-02  3.503E-01  1.015E+05 -2.014E-09  6.500E-02  2.939E+02  2.941E+02
  4.252E-02  3.567E-01  1.015E+05 -1.709E-09  6.500E-02  2.937E+02  2.938E+02
  4.252E-02  3.630E-01  1.015E+05 -1.461E-09  6.500E-02  2.935E+02  2.937E+02
  4.252E-02  3.693E-01  1.015E+05 -1.234E-09  6.500E-02  2.934E+02  2.935E+02
  4.252E-02  3.756E-01  1.015E+05 -1.060E-09  6.500E-02  2.933E+02  2.934E+02
  4.252E-02  3.819E-01  1.015E+05 -9.273E-10  6.500E-02  2.933E+02  2.933E+02
  4.252E-02  3.882E-01  1.015E+05 -8.136E-10  6.500E-02  2.932E+02  2.933E+02
  4.252E-02  3.945E-01  1.015E+05 -7.317E-10  6.500E-02  2.932E+02  2.932E+02
  4.252E-02  4.008E-01  1.014E+05 -6.844E-10  6.500E-02  2.931E+02  2.932E+02
  4.252E-02  4.072E-01  1.014E+05 -6.382E-10  6.500E-02  2.931E+02  2.931E+02
  4.252E-02  4.135E-01  1.014E+05 -6.079E-10  6.500E-02  2.931E+02  2.931E+02
  4.252E-02  4.198E-01  1.014E+05 -5.821E-10  6.501E-02  2.931E+02  2.931E+02
  4.252E-02  4.261E-01  1.014E+05 -5.487E-10  6.500E-02  2.931E+02  2.931E+02
  4.252E-02  4.324E-01  1.014E+05 -5.229E-10  6.500E-02  2.931E+02  2.931E+02
  4.252E-02  4.387E-01  1.014E+05 -4.967E-10  6.500E-02  2.931E+02  2.931E+02
  4.252E-02  4.450E-01  1.014E+05 -4.684E-10  6.500E-02  2.930E+02  2.931E+02
  4.252E-02  4.513E-01  1.014E+05 -4.534E-10  6.500E-02  2.930E+02  2.930E+02
  4.252E-02  4.577E-01  1.014E+05 -4.369E-10  6.500E-02  2.930E+02  2.930E+02
  4.252E-02  4.640E-01  1.014E+05 -3.836E-10  6.500E-02  2.930E+02  2.930E+02
  4.252E-02  4.703E-01  1.014E+05 -3.477E-10  6.500E-02  2.930E+02  2.930E+02
  4.252E-02  4.766E-01  1.014E+05 -3.227E-10  6.500E-02  2.930E+02  2.930E+02
  4.252E-02  4.829E-01  1.014E+05 -2.682E-10  6.500E-02  2.930E+02  2.930E+02
  4.252E-02  4.892E-01  1.013E+05 -2.037E-10  6.500E-02  2.930E+02  2.930E+02
  4.252E-02  4.955E-01  1.013E+05 -1.521E-10  6.500E-02  2.930E+02  2.930E+02
  4.252E-02  5.018E-01  1.013E+05 -1.132E-10  6.500E-02  2.930E+02  2.930E+02
  4.252E-02  5.050E-01  1.013E+05 -1.132E-10  6.500E-02  2.930E+02  2.930E+02
  7.087E-02  0.000E+00  1.019E+05  3.683E-08  6.500E-02  2.930E+02  2.930E+02
  7.087E-02  3.156E-03  1.019E+05  3.683E-08  6.502E-02  2.930E+02  2.930E+02
  7.087E-02  9.469E-03  1.019E+05  3.543E-08  6.500E-02  2.931E+02  2.931E+02
  7.087E-02  1.578E-02  1.019E+05  3.336E-08  6.500E-02  2.931E+02  2.931E+02
  7.087E-02  2.209E-02  1.019E+05  3.092E-08  6.500E-02  2.932E+02  2.932E+02
  7.087E-02  2.841E-02  1.019E+05  2.833E-08  6.500E-02  2.934E+02  2.933E+02
  7.087E-02  3.472E-02  1.019E+05  2.573E-08  6.500E-02  2.936E+02  2.935E+02
  7.087E-02  4.103E-02  1.019E+05  2.323E-08  6.499E-02  2.940E+02  2.938E+02
  7.087E-02  4.734E-02  1.019E+05  2.087E-08  6.500E-02  2.946E+02  2.943E+02
  7.087E-02  5.366E-02  1.018E+05  1.871E-08  6.500E-02  2.955E+02  2.950E+02
  7.087E-02  5.997E-02  1.018E+05  1.674E-08  6.500E-02  2.968E+02  2.961E+02
  7.087E-02  6.628E-02  1.018E+05  1.496E-08  6.499E-02  2.989E+02  2.978E+02
  7.087E-02  7.259E-02  1.018E+05  1.341E-08  6.499E-02  3.018E+02  3.002E+02
  7.087E-02  7.891E-02  1.018E+05  1.204E-08  6.499E-02  3.061E+02  3.038E+02
  7.087E-02  8.522E-02  1.018E+05  1.085E-08  6.499E-02  3.122E+02  3.088E+02
  7.087E-02  9.153E-02  1.018E+05  9.871E-09  6.498E-02  3.203E+02  3.157E+02
  7.087E-02  9.784E-02  1.018E+05  9.043E-09  6.497E-02  3.310E+02  3.249E+02
  7.087E-02  1.042E-01  1.018E+05  8.359E-09  6.497E-02  3.440E+02  3.363E+02
  7.087E-02  1.105E-01  1.018E+05  7.802E-09  6.497E-02  3.591E+02  3.499E+02
  7.087E-02  1.168E-01  1.018E+05  7.337E-09  6.496E-02  3.755E+02  3.652E+02
  7.087E-02  1.231E-01  1.018E+05  6.937E-09  6.496E-02  3.923E+02  3.814E+02
  7.087E-02  1.294E-01  1.018E+05  6.573E-09  6.496E-02  4.084E+02  3.975E+02
  7.087E-02  1.357E-01  1.018E+05  6.192E-09  6.496E-02  4.229E+02  4.126E+02
  7.087E-02  1.420E-01  1.017E+05  5.801E-09  6.496E-02  4.349E+02  4.259E+02
  7.087E-02  1.483E-01  1.017E+05  5.376E-09  6.496E-02  4.439E+02  4.366E+02
  7.087E-02  1.547E-01  1.017E+05  4.883E-09  6.498E-02  4.496E+02  4.443E+02
  7.087E-02  1.610E-01  1.017E+05  4.318E-09  6.500E-02  4.517E+02  4.486E+02
  7.087E-02  1.673E-01  1.017E+05  3.686E-09  6.500E-02  4.505E+02  4.497E+02
  7.087E-02  1.736E-01  1.017E+05  2.991E-09  6.501E-02  4.463E+02  4.476E+02
  7.087E-02  1.799E-01  1.017E+05  2.241E-09  6.502E-02  4.395E+02  4.427E+02
  7.087E-02  1.862E-01  1.017E+05  1.486E-09  6.502E-02  4.307E+02  4.355E+02
  7.087E-02  1.925E-01  1.017E+05  7.454E-10  6.502E-02  4.204E+02  4.265E+02
  7.087E-02  1.988E-01  1.017E+05  4.968E-11  6.503E-02  4.092E+02  4.161E+02
  7.087E-02  2.052E-01  1.017E+05 -5.660E-10  6.504E-02  3.974E+02  4.050E+02
  7.087E-02  2.115E-01  1.017E+05 -1.076E-09  6.503E-02  3.857E+02  3.935E+02
  7.087E-02  2.178E-01  1.017E+05 -1.489E-09  6.504E-02  3.743E+02  3.820E+02
  7.087E-02  2.241E-01  1.017E+05 -1.791E-09  6.503E-02  3.634E+02  3.710E+02
  7.087E-02  2.304E-01  1.016E+05 -1.942E-09  6.502E-02  3.534E+02  3.605E+02
  7.087E-02  2.367E-01  1.016E+05 -1.973E-09  6.502E-02  3.442E+02  3.508E+02
  7.087E-02  2.430E-01  1.016E+05 -1.919E-09  6.502E-02  3.361E+02  3.420E+02
  7.087E-02  2.493E-01  1.016E+05 -1.762E-09  6.502E-02  3.289E+02  3.342E+02
  7.087E-02  2.557E-01  1.016E+05 -1.510E-09  6.502E-02  3.226E+02  3.273E+02
  7.087E-02  2.620E-01  1.016E+05 -1.174E-09  6.502E-02  3.172E+02  3.213E+02
  7.087E-02  2.683E-01  1.016E+05 -7.930E-10  6.501E-02  3.127E+02  3.162E+02
  7.087E-02  2.746E-01  1.016E+05 -4.035E-10  6.501E-02  3.089E+02  3.119E+02
  7.087E-02  2.809E-01  1.016E+05 -2.801E-11  6.502E-02  3.058E+02  3.082E+02
  7.087E-02  2.872E-01  1.016E+05  3.162E-10  6.501E-02  3.032E+02  3.052E+02
  7.087E-02  2.935E-01  1.016E+05  6.434E-10  6.500E-02  3.011E+02  3.027E+02
  7.087E-02  2.998E-01  1.016E+05  9.469E-10  6.500E-02  2.994E+02  3.007E+02
  7.087E-02  3.062E-01  1.016E+05  1.214E-09  6.500E-02  2.980E+02  2.991E+02
  7.087E-02  3.125E-01  1.015E+05  1.440E-09  6.501E-02  2.969E+02  2.978E+02
  7.087E-02  3.188E-01  1.015E+05  1.609E-09  6.501E-02  2.960E+02  2.968E+02
  7.087E-02  3.251E-01  1.015E+05  1.735E-09  6.501E-02  2.954E+02  2.959E+02
  7.087E-02  3.314E-01  1.015E+05  1.847E-09  6.500E-02  2.948E+02  2.953E+02
  7.087E-02  3.377E-01  1.015E+05  1.888E-09  6.500E-02  2.944E+02  2.948E+02
  7.087E-02  3.440E-01  1.015E+05  1.898E-09  6.500E-02  2.941E+02  2.944E+02
  7.087E-02  3.503E-01  1.015E+05  1.868E-09  6.500E-02  2.939E+02  2.941E+02
  7.087E-02  3.567E-01  1.015E+05  1.804E-09  6.500E-02  2.937E+02  2.938E+02
  7.087E-02  3.630E-01  1.015E+05  1.730E-09  6.500E-02  2.935E+02  2.937E+02
  7.087E-02  3.693E-01  1.015E+05  1.635E-09  6.500E-02  2.934E+02  2.935E+02
  7.087E-02  3.756E-01  1.015E+05  1.497E-09  6.500E-02  2.933E+02  2.934E+02
  7.087E-02  3.819E-01  1.015E+05  1.347E-09  6.500E-02  2.933E+02  2.933E+02
  7.087E-02  3.882E-01  1.015E+05  1.206E-09  6.500E-02  2.932E+02  2.933E+02
  7.087E-02  3.945E-01  1.015E+05  1.061E-09  6.500E-02  2.932E+02  2.932E+02
  7.087E-02  4.008E-01  1.014E+05  9.176E-10  6.500E-02  2.931E+02  2.932E+02
  7.087E-02  4.072E-01  1.014E+05  7.864E-10  6.500E-02  2.931E+02  2.931E+02
  7.087E-02  4.135E-01  1.014E+05  6.550E-10  6.500E-02  2.931E+02  2.931E+02
  7.087E-02  4.198E-01  1.014E+05  5.291E-10  6.501E-02  2.931E+02  2.931E+02
  7.087E-02  4.261E-01  1.014E+05  4.208E-10  6.500E-02  2.931E+02  2.931E+02
  7.087E-02  4.324E-01  1.014E+05  3.182E-10  6.500E-02  2.931E+02  2.931E+02
  7.087E-02  4.387E-01  1.014E+05  2.286E-10  6.500E-02  2.931E+02  2.931E+02
  7.087E-02  4.450E-01  1.014E+05  1.483E-10  6.500E-02  2.930E+02  2.931E+02
  7.087E-02  4.513E-01  1.014E+05  8.412E-11  6.500E-02  2.930E+02  2.930E+02
  7.087E-02  4.577E-01  1.014E+05  3.091E-11  6.500E-02  2.930E+02  2.930E+02
  7.087E-02  4.640E-01  1.014E+05 -4.355E-12  6.500E-02  2.930E+02  2.930E+02
  7.087E-02  4.703E-01  1.014E+05 -2.984E-11  6.500E-02  2.930E+02  2.930E+02
  7.087E-02  4.766E-01  1.014E+05 -4.158E-11  6.500E-02  2.930E+02  2.930E+02
  7.087E-02  4.829E-01  1.014E+05 -4.629E-11  6.500E-02  2.930E+02  2.930E+02
  7.087E-02  4.892E-01  1.013E+05 -4.197E-11  6.500E-02  2.930E+02  2.930E+02
  7.087E-02  4.955E-01  1.013E+05 -3.693E-11  6.500E-02  2.930E+02  2.930E+02
  7.087E-02  5.018E-01  1.013E+05 -3.106E-11  6.500E-02  2.930E+02  2.930E+02
  7.087E-02  5.050E-01  1.013E+05 -3.106E-11  6.500E-02  2.930E+02  2.930E+02
  9.922E-02  0.000E+00  1.019E+05  1.722E-08  6.500E-02  2.930E+02  2.930E+02
  9.922E-02  3.156E-03  1.019E+05  1.722E-08  6.502E-02  2.930E+02  2.930E+02
  9.922E-02  9.469E-03  1.019E+05  1.683E-08  6.500E-02  2.931E+02  2.931E+02
  9.922E-02  1.578E-02  1.019E+05  1.618E-08  6.500E-02  2.931E+02  2.931E+02
  9.922E-02  2.209E-02  1.019E+05  1.539E-08  6.500E-02  2.932E+02  2.932E+02
  9.922E-02  2.841E-02  1.019E+05  1.453E-08  6.500E-02  2.934E+02  2.933E+02
  9.922E-02  3.472E-02  1.019E+05  1.362E-08  6.500E-02  2.936E+02  2.935E+02
  9.922E-02  4.103E-02  1.019E+05  1.271E-08  6.499E-02  2.940E+02  2.938E+02
  9.922E-02  4.734E-02  1.019E+05  1.178E-08  6.500E-02  2.946E+02  2.943E+02
  9.922E-02  5.366E-02  1.018E+05  1.087E-08  6.500E-02  2.955E+02  2.950E+02
  9.922E-02  5.997E-02  1.018E+05  9.962E-09  6.500E-02  2.968E+02  2.961E+02
  9.922E-02  6.628E-02  1.018E+05  9.072E-09  6.499E-02  2.989E+02  2.978E+02
  9.922E-02  7.259E-02  1.018E+05  8.180E-09  6.499E-02  3.018E+02  3.002E+02
  9.922E-02  7.891E-02  1.018E+05  7.272E-09  6.499E-02  3.061E+02  3.038E+02
  9.922E-02  8.522E-02  1.018E+05  6.345E-09  6.499E-02  3.122E+02  3.088E+02
  9.922E-02  9.153E-02  1.018E+05  5.421E-09  6.498E-02  3.204E+02  3.157E+02
  9.922E-02  9.784E-02  1.018E+05  4.533E-09  6.497E-02  3.310E+02  3.249E+02
  9.922E-02  1.042E-01  1.018E+05  3.621E-09  6.497E-02  3.440E+02  3.363E+02
  9.922E-02  1.105E-01  1.018E+05  2.672E-09  6.497E-02  3.591E+02  3.499E+02
  9.922E-02  1.168E-01  1.018E+05  1.746E-09  6.496E-02  3.755E+02  3.652E+02
  9.922E-02  1.231E-01  1.018E+05  8.139E-10  6.496E-02  3.923E+02  3.814E+02
  9.922E-02  1.294E-01  1.018E+05 -1.444E-10  6.496E-02  4.084E+02  3.975E+02
  9.922E-02  1.357E-01  1.018E+05 -1.108E-09  6.496E-02  4.229E+02  4.126E+02
  9.922E-02  1.420E-01  1.017E+05 -2.066E-09  6.496E-02  4.350E+02  4.259E+02
  9.922E-02  1.483E-01  1.017E+05 -2.981E-09  6.496E-02  4.439E+02  4.366E+02
  9.922E-02  1.547E-01  1.017E+05 -3.826E-09  6.498E-02  4.496E+02  4.443E+02
  9.922E-02  1.610E-01  1.017E+05 -4.566E-09  6.500E-02  4.517E+02  4.486E+02
  9.922E-02  1.673E-01  1.017E+05 -5.169E-09  6.500E-02  4.505E+02  4.497E+02
  9.922E-02  1.736E-01  1.017E+05 -5.603E-09  6.501E-02  4.463E+02  4.476E+02
  9.922E-02  1.799E-01  1.017E+05 -5.822E-09  6.502E-02  4.395E+02  4.427E+02
  9.922E-02  1.862E-01  1.017E+05 -5.793E-09  6.502E-02  4.307E+02  4.355E+02
  9.922E-02  1.925E-01  1.017E+05 -5.498E-09  6.502E-02  4.204E+02  4.265E+02
  9.922E-02  1.988E-01  1.017E+05 -4.972E-09  6.503E-02  4.091E+02  4.161E+02
  9.922E-02  2.052E-01  1.017E+05 -4.231E-09  6.504E-02  3.974E+02  4.050E+02
  9.922E-02  2.115E-01  1.017E+05 -3.299E-09  6.503E-02  3.857E+02  3.935E+02
  9.922E-02  2.178E-01  1.017E+05 -2.243E-09  6.504E-02  3.743E+02  3.820E+02
  9.922E-02  2.241E-01  1.017E+05 -1.120E-09  6.503E-02  3.634E+02  3.709E+02
  9.922E-02  2.304E-01  1.016E+05  2.742E-11  6.502E-02  3.534E+02  3.605E+02
  9.922E-02  2.367E-01  1.016E+05  1.171E-09  6.502E-02  3.442E+02  3.508E+02
  9.922E-02  2.430E-01  1.016E+05  2.295E-09  6.502E-02  3.360E+02  3.420E+02
  9.922E-02  2.493E-01  1.016E+05  3.374E-09  6.502E-02  3.288E+02  3.342E+02
  9.922E-02  2.557E-01  1.016E+05  4.368E-09  6.502E-02  3.226E+02  3.273E+02
  9.922E-02  2.620E-01  1.016E+05  5.252E-09  6.502E-02  3.172E+02  3.213E+02
  9.922E-02  2.683E-01  1.016E+05  5.997E-09  6.501E-02  3.127E+02  3.162E+02
  9.922E-02  2.746E-01  1.016E+05  6.585E-09  6.501E-02  3.089E+02  3.119E+02
  9.922E-02  2.809E-01  1.016E+05  7.026E-09  6.502E-02  3.057E+02  3.082E+02
  9.922E-02  2.872E-01  1.016E+05  7.302E-09  6.501E-02  3.032E+02  3.052E+02
  9.922E-02  2.935E-01  1.016E+05  7.426E-09  6.500E-02  3.010E+02  3.027E+02
  9.922E-02  2.998E-01  1.016E+05  7.440E-09  6.500E-02  2.993E+02  3.007E+02
  9.922E-02  3.062E-01  1.016E+05  7.351E-09  6.500E-02  2.980E+02  2.991E+02
  9.922E-02  3.125E-01  1.015E+05  7.155E-09  6.501E-02  2.969E+02  2.978E+02
  9.922E-02  3.188E-01  1.015E+05  6.886E-09  6.501E-02  2.960E+02  2.968E+02
  9.922E-02  3.251E-01  1.015E+05  6.560E-09  6.501E-02  2.954E+02  2.959E+02
  9.922E-02  3.314E-01  1.015E+05  6.169E-09  6.500E-02  2.948E+02  2.953E+02
  9.922E-02  3.377E-01  1.015E+05  5.746E-09  6.500E-02  2.944E+02  2.948E+02