VARIABLES="XP","YP","P","U","V","TS","TF"
ZONE T="Zone 001"I=    82 J=    12 F=POINT
  0.000E+00  0.000E+00  1.013E+05  0.000E+00  0.000E+00  2.936E+02  2.936E+02
  0.000E+00  3.156E-03  1.013E+05  0.000E+00  0.000E+00  2.936E+02  2.936E+02
  0.000E+00  9.469E-03  1.013E+05  0.000E+00  0.000E+00  2.941E+02  2.940E+02
  0.000E+00  1.578E-02  1.013E+05  0.000E+00  0.000E+00  2.942E+02  2.942E+02
  0.000E+00  2.209E-02  1.013E+05  0.000E+00  0.000E+00  2.943E+02  2.943E+02
  0.000E+00  2.841E-02  1.013E+05  0.000E+00  0.000E+00  2.943E+02  2.943E+02
  0.000E+00  3.472E-02  1.013E+05  0.000E+00  0.000E+00  2.944E+02  2.944E+02
  0.000E+00  4.103E-02  1.013E+05  0.000E+00  0.000E+00  2.944E+02  2.944E+02
  0.000E+00  4.734E-02  1.013E+05  0.000E+00  0.000E+00  2.945E+02  2.945E+02
  0.000E+00  5.366E-02  1.013E+05  0.000E+00  0.000E+00  2.946E+02  2.946E+02
  0.000E+00  5.997E-02  1.013E+05  0.000E+00  0.000E+00  2.947E+02  2.947E+02
  0.000E+00  6.628E-02  1.013E+05  0.000E+00  0.000E+00  2.948E+02  2.948E+02
  0.000E+00  7.259E-02  1.013E+05  0.000E+00  0.000E+00  2.950E+02  2.950E+02
  0.000E+00  7.891E-02  1.013E+05  0.000E+00  0.000E+00  2.955E+02  2.955E+02
  0.000E+00  8.522E-02  1.013E+05  0.000E+00  0.000E+00  2.971E+02  2.970E+02
  0.000E+00  9.153E-02  1.013E+05  0.000E+00  0.000E+00  3.026E+02  3.023E+02
  0.000E+00  9.784E-02  1.013E+05  0.000E+00  0.000E+00  3.214E+02  3.205E+02
  0.000E+00  1.042E-01  1.013E+05  0.000E+00  0.000E+00  3.797E+02  3.936E+02
  0.000E+00  1.105E-01  1.013E+05  0.000E+00  0.000E+00  3.307E+02  3.360E+02
  0.000E+00  1.168E-01  1.013E+05  0.000E+00  0.000E+00  3.083E+02  3.106E+02
  0.000E+00  1.231E-01  1.013E+05  0.000E+00  0.000E+00  2.995E+02  3.004E+02
  0.000E+00  1.294E-01  1.013E+05  0.000E+00  0.000E+00  2.963E+02  2.966E+02
  0.000E+00  1.357E-01  1.013E+05  0.000E+00  0.000E+00  2.952E+02  2.953E+02
  0.000E+00  1.420E-01  1.013E+05  0.000E+00  0.000E+00  2.948E+02  2.948E+02
  0.000E+00  1.483E-01  1.013E+05  0.000E+00  0.000E+00  2.945E+02  2.946E+02
  0.000E+00  1.547E-01  1.013E+05  0.000E+00  0.000E+00  2.944E+02  2.944E+02
  0.000E+00  1.610E-01  1.013E+05  0.000E+00  0.000E+00  2.943E+02  2.943E+02
  0.000E+00  1.673E-01  1.013E+05  0.000E+00  0.000E+00  2.942E+02  2.942E+02
  0.000E+00  1.736E-01  1.013E+05  0.000E+00  0.000E+00  2.941E+02  2.941E+02
  0.000E+00  1.799E-01  1.013E+05  0.000E+00  0.000E+00  2.940E+02  2.940E+02
  0.000E+00  1.862E-01  1.013E+05  0.000E+00  0.000E+00  2.939E+02  2.939E+02
  0.000E+00  1.925E-01  1.013E+05  0.000E+00  0.000E+00  2.938E+02  2.938E+02
  0.000E+00  1.988E-01  1.013E+05  0.000E+00  0.000E+00  2.937E+02  2.937E+02
  0.000E+00  2.052E-01  1.013E+05  0.000E+00  0.000E+00  2.937E+02  2.937E+02
  0.000E+00  2.115E-01  1.013E+05  0.000E+00  0.000E+00  2.936E+02  2.936E+02
  0.000E+00  2.178E-01  1.013E+05  0.000E+00  0.000E+00  2.936E+02  2.936E+02
  0.000E+00  2.241E-01  1.013E+05  0.000E+00  0.000E+00  2.935E+02  2.935E+02
  0.000E+00  2.304E-01  1.013E+05  0.000E+00  0.000E+00  2.935E+02  2.935E+02
  0.000E+00  2.367E-01  1.013E+05  0.000E+00  0.000E+00  2.934E+02  2.934E+02
  0.000E+00  2.430E-01  1.013E+05  0.000E+00  0.000E+00  2.934E+02  2.934E+02
  0.000E+00  2.493E-01  1.013E+05  0.000E+00  0.000E+00  2.934E+02  2.934E+02
  0.000E+00  2.557E-01  1.013E+05  0.000E+00  0.000E+00  2.933E+02  2.933E+02
  0.000E+00  2.620E-01  1.013E+05  0.000E+00  0.000E+00  2.933E+02  2.933E+02
  0.000E+00  2.683E-01  1.013E+05  0.000E+00  0.000E+00  2.933E+02  2.933E+02
  0.000E+00  2.746E-01  1.013E+05  0.000E+00  0.000E+00  2.932E+02  2.932E+02
  0.000E+00  2.809E-01  1.013E+05  0.000E+00  0.000E+00  2.932E+02  2.932E+02
  0.000E+00  2.872E-01  1.013E+05  0.000E+00  0.000E+00  2.932E+02  2.932E+02
  0.000E+00  2.935E-01  1.013E+05  0.000E+00  0.000E+00  2.932E+02  2.932E+02
  0.000E+00  2.998E-01  1.013E+05  0.000E+00  0.000E+00  2.932E+02  2.932E+02
  0.000E+00  3.062E-01  1.013E+05  0.000E+00  0.000E+00  2.931E+02  2.932E+02
  0.000E+00  3.125E-01  1.013E+05  0.000E+00  0.000E+00  2.931E+02  2.931E+02
  0.000E+00  3.188E-01  1.013E+05  0.000E+00  0.000E+00  2.931E+02  2.931E+02
  0.000E+00  3.251E-01  1.013E+05  0.000E+00  0.000E+00  2.931E+02  2.931E+02
  0.000E+00  3.314E-01  1.013E+05  0.000E+00  0.000E+00  2.931E+02  2.931E+02
  0.000E+00  3.377E-01  1.013E+05  0.000E+00  0.000E+00  2.931E+02  2.931E+02
  0.000E+00  3.440E-01  1.013E+05  0.000E+00  0.000E+00  2.931E+02  2.931E+02
  0.000E+00  3.503E-01  1.013E+05  0.000E+00  0.000E+00  2.931E+02  2.931E+02
  0.000E+00  3.567E-01  1.013E+05  0.000E+00  0.000E+00  2.931E+02  2.931E+02
  0.000E+00  3.630E-01  1.013E+05  0.000E+00  0.000E+00  2.931E+02  2.931E+02
  0.000E+00  3.693E-01  1.013E+05  0.000E+00  0.000E+00  2.931E+02  2.931E+02
  0.000E+00  3.756E-01  1.013E+05  0.000E+00  0.000E+00  2.930E+02  2.931E+02
  0.000E+00  3.819E-01  1.013E+05  0.000E+00  0.000E+00  2.930E+02  2.930E+02
  0.000E+00  3.882E-01  1.013E+05  0.000E+00  0.000E+00  2.930E+02  2.930E+02
  0.000E+00  3.945E-01  1.013E+05  0.000E+00  0.000E+00  2.930E+02  2.930E+02
  0.000E+00  4.008E-01  1.013E+05  0.000E+00  0.000E+00  2.930E+02  2.930E+02
  0.000E+00  4.072E-01  1.013E+05  0.000E+00  0.000E+00  2.930E+02  2.930E+02
  0.000E+00  4.135E-01  1.013E+05  0.000E+00  0.000E+00  2.930E+02  2.930E+02
  0.000E+00  4.198E-01  1.013E+05  0.000E+00  0.000E+00  2.930E+02  2.930E+02
  0.000E+00  4.261E-01  1.013E+05  0.000E+00  0.000E+00  2.930E+02  2.930E+02
  0.000E+00  4.324E-01  1.013E+05  0.000E+00  0.000E+00  2.930E+02  2.930E+02
  0.000E+00  4.387E-01  1.013E+05  0.000E+00  0.000E+00  2.930E+02  2.930E+02
  0.000E+00  4.450E-01  1.013E+05  0.000E+00  0.000E+00  2.930E+02  2.930E+02
  0.000E+00  4.513E-01  1.013E+05  0.000E+00  0.000E+00  2.930E+02  2.930E+02
  0.000E+00  4.577E-01  1.013E+05  0.000E+00  0.000E+00  2.930E+02  2.930E+02
  0.000E+00  4.640E-01  1.013E+05  0.000E+00  0.000E+00  2.930E+02  2.930E+02
  0.000E+00  4.703E-01  1.013E+05  0.000E+00  0.000E+00  2.930E+02  2.930E+02
  0.000E+00  4.766E-01  1.013E+05  0.000E+00  0.000E+00  2.930E+02  2.930E+02
  0.000E+00  4.829E-01  1.013E+05  0.000E+00  0.000E+00  2.930E+02  2.930E+02
  0.000E+00  4.892E-01  1.013E+05  0.000E+00  0.000E+00  2.930E+02  2.930E+02
  0.000E+00  4.955E-01  1.013E+05  0.000E+00  0.000E+00  2.930E+02  2.930E+02
  0.000E+00  5.018E-01  1.013E+05  0.000E+00  0.000E+00  2.930E+02  2.930E+02
  0.000E+00  5.050E-01  1.013E+05  0.000E+00  0.000E+00  2.930E+02  2.930E+02
  1.417E-02  0.000E+00  1.013E+05  0.000E+00  0.000E+00  2.930E+02  2.936E+02
  1.417E-02  3.156E-03  1.013E+05  1.322E-07 -9.440E-03  2.936E+02  2.936E+02
  1.417E-02  9.469E-03  1.013E+05  5.765E-08 -5.985E-03  2.941E+02  2.940E+02
  1.417E-02  1.578E-02  1.013E+05 -3.332E-07 -7.279E-03  2.942E+02  2.942E+02
  1.417E-02  2.209E-02  1.013E+05  3.520E-07 -7.192E-03  2.943E+02  2.943E+02
  1.417E-02  2.841E-02  1.013E+05  1.056E-05 -7.478E-03  2.943E+02  2.943E+02
  1.417E-02  3.472E-02  1.013E+05  1.153E-05 -7.763E-03  2.944E+02  2.944E+02
  1.417E-02  4.103E-02  1.013E+05  1.019E-05 -8.121E-03  2.944E+02  2.944E+02
  1.417E-02  4.734E-02  1.013E+05  8.116E-07 -8.554E-03  2.945E+02  2.945E+02
  1.417E-02  5.366E-02  1.013E+05  9.627E-06 -9.048E-03  2.946E+02  2.946E+02
  1.417E-02  5.997E-02  1.013E+05  3.472E-07 -9.608E-03  2.947E+02  2.947E+02
  1.417E-02  6.628E-02  1.013E+05 -5.947E-07 -1.025E-02  2.948E+02  2.948E+02
  1.417E-02  7.259E-02  1.013E+05 -2.243E-07 -1.097E-02  2.950E+02  2.950E+02
  1.417E-02  7.891E-02  1.013E+05 -1.215E-07 -1.177E-02  2.955E+02  2.955E+02
  1.417E-02  8.522E-02  1.013E+05  1.906E-07 -1.265E-02  2.971E+02  2.970E+02
  1.417E-02  9.153E-02  1.013E+05 -7.736E-07 -1.362E-02  3.026E+02  3.023E+02
  1.417E-02  9.784E-02  1.013E+05 -1.028E-05 -1.465E-02  3.214E+02  3.205E+02
  1.417E-02  1.042E-01  1.013E+05 -6.812E-07 -1.478E-02  3.797E+02  3.936E+02
  1.417E-02  1.105E-01  1.013E+05  3.727E-07 -1.448E-02  3.307E+02  3.360E+02
  1.417E-02  1.168E-01  1.013E+05  1.229E-07 -1.334E-02  3.083E+02  3.106E+02
  1.417E-02  1.231E-01  1.013E+05  3.655E-07 -1.222E-02  2.995E+02  3.004E+02
  1.417E-02  1.294E-01  1.013E+05 -7.686E-07 -1.120E-02  2.963E+02  2.966E+02
  1.417E-02  1.357E-01  1.013E+05 -1.042E-05 -1.025E-02  2.952E+02  2.953E+02
  1.417E-02  1.420E-01  1.013E+05 -8.789E-07 -9.382E-03  2.948E+02  2.948E+02
  1.417E-02  1.483E-01  1.013E+05 -1.153E-07 -8.583E-03  2.945E+02  2.946E+02
  1.417E-02  1.547E-01  1.013E+05  6.593E-07 -7.842E-03  2.944E+02  2.944E+02
  1.417E-02  1.610E-01  1.013E+05  1.004E-05 -7.152E-03  2.943E+02  2.943E+02
  1.417E-02  1.673E-01  1.013E+05  1.385E-06 -6.524E-03  2.942E+02  2.942E+02
  1.417E-02  1.736E-01  1.013E+05  9.957E-06 -5.950E-03  2.941E+02  2.941E+02
  1.417E-02  1.799E-01  1.013E+05  4.728E-07 -5.419E-03  2.940E+02  2.940E+02
  1.417E-02  1.862E-01  1.013E+05 -8.713E-07 -4.939E-03  2.939E+02  2.939E+02
  1.417E-02  1.925E-01  1.013E+05  4.287E-07 -4.507E-03  2.938E+02  2.938E+02
  1.417E-02  1.988E-01  1.013E+05  1.009E-05 -4.099E-03  2.937E+02  2.937E+02
  1.417E-02  2.052E-01  1.013E+05  5.104E-07 -3.722E-03  2.937E+02  2.937E+02
  1.417E-02  2.115E-01  1.013E+05 -4.625E-07 -3.391E-03  2.936E+02  2.936E+02
  1.417E-02  2.178E-01  1.013E+05 -1.812E-07 -3.085E-03  2.936E+02  2.936E+02
  1.417E-02  2.241E-01  1.013E+05 -1.107E-07 -2.801E-03  2.935E+02  2.935E+02
  1.417E-02  2.304E-01  1.013E+05 -8.840E-08 -2.540E-03  2.935E+02  2.935E+02
  1.417E-02  2.367E-01  1.013E+05 -1.669E-08 -2.307E-03  2.934E+02  2.934E+02
  1.417E-02  2.430E-01  1.013E+05  3.096E-08 -2.105E-03  2.934E+02  2.934E+02
  1.417E-02  2.493E-01  1.013E+05  8.520E-08 -1.909E-03  2.934E+02  2.934E+02
  1.417E-02  2.557E-01  1.013E+05  1.512E-07 -1.722E-03  2.933E+02  2.933E+02
  1.417E-02  2.620E-01  1.013E+05  3.539E-07 -1.554E-03  2.933E+02  2.933E+02
  1.417E-02  2.683E-01  1.013E+05 -6.955E-07 -1.409E-03  2.933E+02  2.933E+02
  1.417E-02  2.746E-01  1.013E+05 -1.039E-05 -1.290E-03  2.932E+02  2.932E+02
  1.417E-02  2.809E-01  1.013E+05 -5.919E-07 -1.173E-03  2.932E+02  2.932E+02
  1.417E-02  2.872E-01  1.013E+05  4.773E-07 -1.053E-03  2.932E+02  2.932E+02
  1.417E-02  2.935E-01  1.013E+05  2.014E-07 -9.567E-04  2.932E+02  2.932E+02
  1.417E-02  2.998E-01  1.013E+05  5.026E-07 -8.711E-04  2.932E+02  2.932E+02
  1.417E-02  3.062E-01  1.013E+05 -5.447E-07 -7.734E-04  2.931E+02  2.932E+02
  1.417E-02  3.125E-01  1.013E+05 -1.033E-05 -6.982E-04  2.931E+02  2.931E+02
  1.417E-02  3.188E-01  1.013E+05 -6.356E-07 -6.468E-04  2.931E+02  2.931E+02
  1.417E-02  3.251E-01  1.013E+05  6.389E-07 -5.795E-04  2.931E+02  2.931E+02
  1.417E-02  3.314E-01  1.013E+05 -6.804E-07 -5.111E-04  2.931E+02  2.931E+02
  1.417E-02  3.377E-01  1.013E+05 -1.043E-05 -4.655E-04  2.931E+02  2.931E+02
  1.417E-02  3.440E-01  1.013E+05 -7.268E-07 -4.294E-04  2.931E+02  2.931E+02
  1.417E-02  3.503E-01  1.013E+05  3.003E-07 -3.874E-04  2.931E+02  2.931E+02
  1.417E-02  3.567E-01  1.013E+05 -1.757E-08 -3.377E-04  2.931E+02  2.931E+02
  1.417E-02  3.630E-01  1.013E+05 -9.457E-08 -3.049E-04  2.931E+02  2.931E+02
  1.417E-02  3.693E-01  1.013E+05 -1.354E-07 -2.906E-04  2.931E+02  2.931E+02
  1.417E-02  3.756E-01  1.013E+05 -1.045E-07 -2.614E-04  2.930E+02  2.931E+02
  1.417E-02  3.819E-01  1.013E+05 -6.254E-08 -2.273E-04  2.930E+02  2.930E+02
  1.417E-02  3.882E-01  1.013E+05 -9.107E-08 -1.998E-04  2.930E+02  2.930E+02
  1.417E-02  3.945E-01  1.013E+05 -1.270E-07 -1.748E-04  2.930E+02  2.930E+02
  1.417E-02  4.008E-01  1.013E+05 -1.669E-07 -1.627E-04  2.930E+02  2.930E+02
  1.417E-02  4.072E-01  1.013E+05 -1.717E-07 -1.485E-04  2.930E+02  2.930E+02
  1.417E-02  4.135E-01  1.013E+05 -1.612E-07 -1.345E-04  2.930E+02  2.930E+02
  1.417E-02  4.198E-01  1.013E+05 -1.130E-07 -1.219E-04  2.930E+02  2.930E+02
  1.417E-02  4.261E-01  1.013E+05 -6.486E-08 -9.996E-05  2.930E+02  2.930E+02
  1.417E-02  4.324E-01  1.013E+05 -1.997E-08 -9.142E-05  2.930E+02  2.930E+02
  1.417E-02  4.387E-01  1.013E+05 -2.883E-08 -8.893E-05  2.930E+02  2.930E+02
  1.417E-02  4.450E-01  1.013E+05 -2.414E-08 -7.372E-05  2.930E+02  2.930E+02
  1.417E-02  4.513E-01  1.013E+05 -2.453E-08 -5.395E-05  2.930E+02  2.930E+02
  1.417E-02  4.577E-01  1.013E+05 -2.222E-08 -3.951E-05  2.930E+02  2.930E+02
  1.417E-02  4.640E-01  1.013E+05 -1.975E-08 -3.578E-05  2.930E+02  2.930E+02
  1.417E-02  4.703E-01  1.013E+05 -1.797E-08 -3.636E-05  2.930E+02  2.930E+02
  1.417E-02  4.766E-01  1.013E+05 -1.676E-08 -3.691E-05  2.930E+02  2.930E+02
  1.417E-02  4.829E-01  1.013E+05 -1.627E-08 -3.330E-05  2.930E+02  2.930E+02
  1.417E-02  4.892E-01  1.013E+05 -1.488E-08 -1.806E-05  2.930E+02  2.930E+02
  1.417E-02  4.955E-01  1.013E+05 -1.069E-08 -2.745E-06  2.930E+02  2.930E+02
  1.417E-02  5.018E-01  1.013E+05 -7.478E-09  9.805E-08  2.930E+02  2.930E+02
  1.417E-02  5.050E-01  1.013E+05 -7.478E-09  9.805E-08  2.930E+02  2.930E+02
  4.252E-02  0.000E+00  1.013E+05  0.000E+00  0.000E+00  2.930E+02  2.937E+02
  4.252E-02  3.156E-03  1.013E+05  3.994E-06 -9.441E-03  2.936E+02  2.937E+02
  4.252E-02  9.469E-03  1.013E+05  4.021E-06 -5.987E-03  2.941E+02  2.940E+02
  4.252E-02  1.578E-02  1.013E+05  3.994E-06 -7.278E-03  2.942E+02  2.942E+02
  4.252E-02  2.209E-02  1.013E+05  4.021E-06 -7.181E-03  2.943E+02  2.943E+02
  4.252E-02  2.841E-02  1.013E+05  3.972E-06 -7.465E-03  2.943E+02  2.943E+02
  4.252E-02  3.472E-02  1.013E+05  4.227E-06 -7.765E-03  2.944E+02  2.944E+02
  4.252E-02  4.103E-02  1.013E+05  3.133E-06 -8.132E-03  2.944E+02  2.944E+02
  4.252E-02  4.734E-02  1.013E+05  1.884E-06 -8.556E-03  2.945E+02  2.945E+02
  4.252E-02  5.366E-02  1.013E+05  2.484E-06 -9.050E-03  2.946E+02  2.946E+02
  4.252E-02  5.997E-02  1.013E+05  1.339E-06 -9.617E-03  2.947E+02  2.947E+02
  4.252E-02  6.628E-02  1.013E+05  3.156E-07 -1.026E-02  2.948E+02  2.948E+02
  4.252E-02  7.259E-02  1.013E+05  5.041E-07 -1.097E-02  2.950E+02  2.950E+02
  4.252E-02  7.891E-02  1.013E+05  4.881E-07 -1.177E-02  2.955E+02  2.955E+02
  4.252E-02  8.522E-02  1.013E+05  7.254E-07 -1.265E-02  2.971E+02  2.970E+02
  4.252E-02  9.153E-02  1.013E+05 -3.256E-07 -1.363E-02  3.026E+02  3.023E+02
  4.252E-02  9.784E-02  1.013E+05 -1.773E-06 -1.465E-02  3.214E+02  3.205E+02
  4.252E-02  1.042E-01  1.013E+05 -4.004E-07 -1.477E-02  3.797E+02  3.935E+02
  4.252E-02  1.105E-01  1.013E+05  6.720E-07 -1.448E-02  3.307E+02  3.360E+02
  4.252E-02  1.168E-01  1.013E+05  3.754E-07 -1.334E-02  3.083E+02  3.106E+02
  4.252E-02  1.231E-01  1.013E+05  5.495E-07 -1.222E-02  2.995E+02  3.004E+02
  4.252E-02  1.294E-01  1.013E+05 -5.685E-07 -1.121E-02  2.963E+02  2.967E+02
  4.252E-02  1.357E-01  1.013E+05 -2.051E-06 -1.025E-02  2.952E+02  2.953E+02
  4.252E-02  1.420E-01  1.013E+05 -7.302E-07 -9.373E-03  2.948E+02  2.948E+02
  4.252E-02  1.483E-01  1.013E+05  4.350E-08 -8.576E-03  2.946E+02  2.946E+02
  4.252E-02  1.547E-01  1.013E+05  8.596E-07 -7.833E-03  2.944E+02  2.944E+02
  4.252E-02  1.610E-01  1.013E+05  2.063E-06 -7.149E-03  2.943E+02  2.943E+02
  4.252E-02  1.673E-01  1.013E+05  1.579E-06 -6.524E-03  2.942E+02  2.942E+02
  4.252E-02  1.736E-01  1.013E+05  1.893E-06 -5.955E-03  2.941E+02  2.941E+02
  4.252E-02  1.799E-01  1.013E+05  6.325E-07 -5.430E-03  2.940E+02  2.940E+02
  4.252E-02  1.862E-01  1.013E+05 -5.585E-07 -4.939E-03  2.939E+02  2.939E+02
  4.252E-02  1.925E-01  1.013E+05 -3.692E-07 -4.495E-03  2.938E+02  2.938E+02
  4.252E-02  1.988E-01  1.013E+05 -4.623E-07 -4.099E-03  2.938E+02  2.938E+02
  4.252E-02  2.052E-01  1.013E+05 -4.705E-07 -3.733E-03  2.937E+02  2.937E+02
  4.252E-02  2.115E-01  1.013E+05 -4.505E-07 -3.394E-03  2.936E+02  2.936E+02
  4.252E-02  2.178E-01  1.013E+05 -3.566E-07 -3.083E-03  2.936E+02  2.936E+02
  4.252E-02  2.241E-01  1.013E+05 -3.308E-07 -2.801E-03  2.935E+02  2.935E+02
  4.252E-02  2.304E-01  1.013E+05 -3.231E-07 -2.540E-03  2.935E+02  2.935E+02
  4.252E-02  2.367E-01  1.013E+05 -3.322E-07 -2.306E-03  2.934E+02  2.934E+02
  4.252E-02  2.430E-01  1.013E+05 -2.692E-07 -2.105E-03  2.934E+02  2.934E+02
  4.252E-02  2.493E-01  1.013E+05 -1.555E-07 -1.909E-03  2.934E+02  2.934E+02
  4.252E-02  2.557E-01  1.013E+05  1.450E-07 -1.721E-03  2.933E+02  2.933E+02
  4.252E-02  2.620E-01  1.013E+05 -5.866E-07 -1.558E-03  2.933E+02  2.933E+02
  4.252E-02  2.683E-01  1.013E+05 -2.995E-06 -1.420E-03  2.933E+02  2.933E+02
  4.252E-02  2.746E-01  1.013E+05 -2.985E-06 -1.289E-03  2.932E+02  2.932E+02
  4.252E-02  2.809E-01  1.013E+05 -2.285E-07 -1.162E-03  2.932E+02  2.932E+02
  4.252E-02  2.872E-01  1.013E+05 -3.681E-07 -1.049E-03  2.932E+02  2.932E+02
  4.252E-02  2.935E-01  1.013E+05 -1.926E-06 -9.566E-04  2.932E+02  2.932E+02
  4.252E-02  2.998E-01  1.013E+05 -1.564E-07 -8.745E-04  2.932E+02  2.932E+02
  4.252E-02  3.062E-01  1.013E+05  1.200E-07 -7.846E-04  2.931E+02  2.932E+02
  4.252E-02  3.125E-01  1.013E+05 -2.658E-06 -6.986E-04  2.931E+02  2.931E+02
  4.252E-02  3.188E-01  1.013E+05 -2.447E-06 -6.350E-04  2.931E+02  2.931E+02
  4.252E-02  3.251E-01  1.013E+05 -8.564E-07 -5.797E-04  2.931E+02  2.931E+02
  4.252E-02  3.314E-01  1.013E+05 -2.276E-06 -5.232E-04  2.931E+02  2.931E+02
  4.252E-02  3.377E-01  1.013E+05 -3.573E-06 -4.657E-04  2.931E+02  2.931E+02
  4.252E-02  3.440E-01  1.013E+05 -2.566E-06 -4.187E-04  2.931E+02  2.931E+02
  4.252E-02  3.503E-01  1.013E+05 -1.214E-07 -3.842E-04  2.931E+02  2.931E+02
  4.252E-02  3.567E-01  1.013E+05 -1.983E-07 -3.394E-04  2.931E+02  2.931E+02
  4.252E-02  3.630E-01  1.013E+05 -2.941E-06 -3.055E-04  2.931E+02  2.931E+02
  4.252E-02  3.693E-01  1.013E+05 -2.952E-06 -2.906E-04  2.931E+02  2.931E+02
  4.252E-02  3.756E-01  1.013E+05 -4.269E-07 -2.610E-04  2.931E+02  2.931E+02
  4.252E-02  3.819E-01  1.013E+05  4.924E-07 -2.272E-04  2.930E+02  2.930E+02
  4.252E-02  3.882E-01  1.013E+05  4.871E-07 -2.000E-04  2.930E+02  2.930E+02
  4.252E-02  3.945E-01  1.013E+05 -6.437E-07 -1.751E-04  2.930E+02  2.930E+02
  4.252E-02  4.008E-01  1.013E+05 -1.932E-06 -1.629E-04  2.930E+02  2.930E+02
  4.252E-02  4.072E-01  1.013E+05 -1.622E-06 -1.485E-04  2.930E+02  2.930E+02
  4.252E-02  4.135E-01  1.013E+05 -1.966E-06 -1.342E-04  2.930E+02  2.930E+02
  4.252E-02  4.198E-01  1.013E+05 -7.112E-07 -1.215E-04  2.930E+02  2.930E+02
  4.252E-02  4.261E-01  1.013E+05  3.624E-07 -9.955E-05  2.930E+02  2.930E+02
  4.252E-02  4.324E-01  1.013E+05  7.231E-08 -9.127E-05  2.930E+02  2.930E+02
  4.252E-02  4.387E-01  1.013E+05  4.802E-08 -8.895E-05  2.930E+02  2.930E+02
  4.252E-02  4.450E-01  1.013E+05  2.355E-08 -7.370E-05  2.930E+02  2.930E+02
  4.252E-02  4.513E-01  1.013E+05 -4.440E-08 -5.395E-05  2.930E+02  2.930E+02
  4.252E-02  4.577E-01  1.013E+05 -3.410E-08 -3.950E-05  2.930E+02  2.930E+02
  4.252E-02  4.640E-01  1.013E+05 -1.902E-08 -3.577E-05  2.930E+02  2.930E+02
  4.252E-02  4.703E-01  1.013E+05 -2.256E-08 -3.635E-05  2.930E+02  2.930E+02
  4.252E-02  4.766E-01  1.013E+05 -3.069E-08 -3.690E-05  2.930E+02  2.930E+02
  4.252E-02  4.829E-01  1.013E+05 -6.061E-08 -3.329E-05  2.930E+02  2.930E+02
  4.252E-02  4.892E-01  1.013E+05 -8.350E-08 -1.804E-05  2.930E+02  2.930E+02
  4.252E-02  4.955E-01  1.013E+05 -5.269E-08 -2.713E-06  2.930E+02  2.930E+02
  4.252E-02  5.018E-01  1.013E+05 -1.609E-08  1.791E-07  2.930E+02  2.930E+02
  4.252E-02  5.050E-01  1.013E+05 -1.609E-08  1.791E-07  2.930E+02  2.930E+02
  7.087E-02  0.000E+00  1.013E+05  0.000E+00  0.000E+00  2.930E+02  2.937E+02
  7.087E-02  3.156E-03  1.013E+05  8.071E-06 -9.440E-03  2.936E+02  2.937E+02
  7.087E-02  9.469E-03  1.013E+05  8.140E-06 -5.985E-03  2.941E+02  2.940E+02
  7.087E-02  1.578E-02  1.013E+05  8.403E-06 -7.279E-03  2.942E+02  2.942E+02
  7.087E-02  2.209E-02  1.013E+05  7.604E-06 -7.193E-03  2.943E+02  2.943E+02
  7.087E-02  2.841E-02  1.013E+05  5.428E-06 -7.477E-03  2.943E+02  2.943E+02
  7.087E-02  3.472E-02  1.013E+05  4.606E-06 -7.767E-03  2.944E+02  2.944E+02
  7.087E-02  4.103E-02  1.013E+05  4.757E-06 -8.132E-03  2.944E+02  2.944E+02
  7.087E-02  4.734E-02  1.013E+05  4.594E-06 -8.557E-03  2.945E+02  2.945E+02
  7.087E-02  5.366E-02  1.013E+05  4.539E-06 -9.050E-03  2.946E+02  2.946E+02
  7.087E-02  5.997E-02  1.013E+05  4.338E-06 -9.617E-03  2.947E+02  2.947E+02
  7.087E-02  6.628E-02  1.013E+05  4.407E-06 -1.026E-02  2.948E+02  2.948E+02
  7.087E-02  7.259E-02  1.013E+05  3.188E-06 -1.097E-02  2.950E+02  2.950E+02
  7.087E-02  7.891E-02  1.013E+05  1.581E-06 -1.177E-02  2.955E+02  2.955E+02
  7.087E-02  8.522E-02  1.013E+05  2.798E-06 -1.266E-02  2.971E+02  2.970E+02
  7.087E-02  9.153E-02  1.013E+05  3.880E-06 -1.364E-02  3.026E+02  3.023E+02
  7.087E-02  9.784E-02  1.013E+05  2.466E-06 -1.465E-02  3.214E+02  3.204E+02
  7.087E-02  1.042E-01  1.013E+05  1.031E-06 -1.477E-02  3.797E+02  3.935E+02
  7.087E-02  1.105E-01  1.013E+05  2.648E-06 -1.448E-02  3.307E+02  3.360E+02
  7.087E-02  1.168E-01  1.013E+05  2.679E-06 -1.334E-02  3.083E+02  3.106E+02
  7.087E-02  1.231E-01  1.013E+05  1.065E-06 -1.222E-02  2.995E+02  3.004E+02
  7.087E-02  1.294E-01  1.013E+05  2.787E-06 -1.121E-02  2.963E+02  2.967E+02
  7.087E-02  1.357E-01  1.013E+05  2.938E-06 -1.025E-02  2.952E+02  2.953E+02
  7.087E-02  1.420E-01  1.013E+05  4.622E-07 -9.373E-03  2.948E+02  2.948E+02
  7.087E-02  1.483E-01  1.013E+05 -3.240E-07 -8.576E-03  2.946E+02  2.946E+02
  7.087E-02  1.547E-01  1.013E+05 -1.004E-07 -7.833E-03  2.944E+02  2.944E+02
  7.087E-02  1.610E-01  1.013E+05  2.464E-07 -7.149E-03  2.943E+02  2.943E+02
  7.087E-02  1.673E-01  1.013E+05 -7.362E-07 -6.525E-03  2.942E+02  2.942E+02
  7.087E-02  1.736E-01  1.013E+05 -2.100E-06 -5.955E-03  2.941E+02  2.941E+02
  7.087E-02  1.799E-01  1.013E+05 -4.042E-07 -5.430E-03  2.940E+02  2.940E+02
  7.087E-02  1.862E-01  1.013E+05 -1.298E-07 -4.944E-03  2.939E+02  2.939E+02
  7.087E-02  1.925E-01  1.013E+05 -2.577E-06 -4.507E-03  2.938E+02  2.938E+02
  7.087E-02  1.988E-01  1.013E+05 -3.389E-06 -4.100E-03  2.937E+02  2.938E+02
  7.087E-02  2.052E-01  1.013E+05 -3.518E-06 -3.722E-03  2.937E+02  2.937E+02
  7.087E-02  2.115E-01  1.013E+05 -2.516E-06 -3.391E-03  2.936E+02  2.936E+02
  7.087E-02  2.178E-01  1.013E+05 -1.372E-06 -3.084E-03  2.936E+02  2.936E+02
  7.087E-02  2.241E-01  1.013E+05 -1.771E-06 -2.801E-03  2.935E+02  2.935E+02
  7.087E-02  2.304E-01  1.013E+05 -1.467E-06 -2.540E-03  2.935E+02  2.935E+02
  7.087E-02  2.367E-01  1.013E+05 -2.977E-06 -2.307E-03  2.934E+02  2.934E+02
  7.087E-02  2.430E-01  1.013E+05 -3.070E-06 -2.105E-03  2.934E+02  2.934E+02
  7.087E-02  2.493E-01  1.013E+05 -1.807E-06 -1.908E-03  2.934E+02  2.934E+02
  7.087E-02  2.557E-01  1.013E+05 -2.297E-06 -1.724E-03  2.933E+02  2.933E+02
  7.087E-02  2.620E-01  1.013E+05 -2.249E-06 -1.568E-03  2.933E+02  2.933E+02
  7.087E-02  2.683E-01  1.013E+05 -2.426E-06 -1.420E-03  2.933E+02  2.933E+02
  7.087E-02  2.746E-01  1.013E+05 -2.332E-06 -1.277E-03  2.932E+02  2.932E+02
  7.087E-02  2.809E-01  1.013E+05 -2.370E-06 -1.162E-03  2.932E+02  2.932E+02
  7.087E-02  2.872E-01  1.013E+05 -2.269E-06 -1.061E-03  2.932E+02  2.932E+02
  7.087E-02  2.935E-01  1.013E+05 -2.567E-06 -9.558E-04  2.932E+02  2.932E+02
  7.087E-02  2.998E-01  1.013E+05 -1.410E-06 -8.620E-04  2.932E+02  2.932E+02
  7.087E-02  3.062E-01  1.013E+05 -6.234E-08 -7.847E-04  2.932E+02  2.932E+02
  7.087E-02  3.125E-01  1.013E+05 -1.338E-06 -7.098E-04  2.931E+02  2.931E+02
  7.087E-02  3.188E-01  1.013E+05 -2.456E-06 -6.387E-04  2.931E+02  2.931E+02
  7.087E-02  3.251E-01  1.013E+05 -2.042E-06 -5.787E-04  2.931E+02  2.931E+02
  7.087E-02  3.314E-01  1.013E+05 -2.161E-06 -5.233E-04  2.931E+02  2.931E+02
  7.087E-02  3.377E-01  1.013E+05 -1.793E-06 -4.668E-04  2.931E+02  2.931E+02
  7.087E-02  3.440E-01  1.013E+05 -3.156E-06 -4.139E-04  2.931E+02  2.931E+02
  7.087E-02  3.503E-01  1.013E+05 -3.069E-06 -3.768E-04  2.931E+02  2.931E+02
  7.087E-02  3.567E-01  1.013E+05 -1.335E-06 -3.503E-04  2.931E+02  2.931E+02
  7.087E-02  3.630E-01  1.013E+05 -3.023E-06 -3.173E-04  2.931E+02  2.931E+02
  7.087E-02  3.693E-01  1.013E+05 -3.198E-06 -2.793E-04  2.931E+02  2.931E+02
  7.087E-02  3.756E-01  1.013E+05 -6.580E-07 -2.459E-04  2.930E+02  2.931E+02
  7.087E-02  3.819E-01  1.013E+05  2.320E-07 -2.232E-04  2.930E+02  2.930E+02
  7.087E-02  3.882E-01  1.013E+05  3.192E-07 -2.049E-04  2.930E+02  2.930E+02
  7.087E-02  3.945E-01  1.013E+05 -7.550E-07 -1.857E-04  2.930E+02  2.930E+02
  7.087E-02  4.008E-01  1.013E+05 -2.044E-06 -1.671E-04  2.930E+02  2.930E+02
  7.087E-02  4.072E-01  1.013E+05 -1.659E-06 -1.487E-04  2.930E+02  2.930E+02
  7.087E-02  4.135E-01  1.013E+05 -1.958E-06 -1.304E-04  2.930E+02  2.930E+02
  7.087E-02  4.198E-01  1.013E+05 -4.346E-07 -1.114E-04  2.930E+02  2.930E+02
  7.087E-02  4.261E-01  1.013E+05 -4.042E-07 -9.645E-05  2.930E+02  2.930E+02
  7.087E-02  4.324E-01  1.013E+05 -2.128E-06 -9.284E-05  2.930E+02  2.930E+02
  7.087E-02  4.387E-01  1.013E+05 -6.702E-07 -8.916E-05  2.930E+02  2.930E+02
  7.087E-02  4.450E-01  1.013E+05  3.559E-07 -7.414E-05  2.930E+02  2.930E+02
  7.087E-02  4.513E-01  1.013E+05  4.868E-08 -5.422E-05  2.930E+02  2.930E+02
  7.087E-02  4.577E-01  1.013E+05  5.733E-08 -3.941E-05  2.930E+02  2.930E+02
  7.087E-02  4.640E-01  1.013E+05  4.862E-08 -3.574E-05  2.930E+02  2.930E+02
  7.087E-02  4.703E-01  1.013E+05  3.288E-08 -3.642E-05  2.930E+02  2.930E+02
  7.087E-02  4.766E-01  1.013E+05  3.711E-08 -3.708E-05  2.930E+02  2.930E+02
  7.087E-02  4.829E-01  1.013E+05 -2.494E-08 -3.354E-05  2.930E+02  2.930E+02
  7.087E-02  4.892E-01  1.013E+05 -5.692E-08 -1.803E-05  2.930E+02  2.930E+02
  7.087E-02  4.955E-01  1.013E+05 -3.714E-08 -2.445E-06  2.930E+02  2.930E+02
  7.087E-02  5.018E-01  1.013E+05 -5.349E-09  4.060E-07  2.930E+02  2.930E+02
  7.087E-02  5.050E-01  1.013E+05 -5.349E-09  4.060E-07  2.930E+02  2.930E+02
  9.922E-02  0.000E+00  1.013E+05  0.000E+00  0.000E+00  2.930E+02  2.937E+02
  9.922E-02  3.156E-03  1.013E+05  1.119E-05 -9.441E-03  2.936E+02  2.937E+02
  9.922E-02  9.469E-03  1.013E+05  1.002E-05 -5.986E-03  2.941E+02  2.940E+02
  9.922E-02  1.578E-02  1.013E+05  8.736E-06 -7.280E-03  2.942E+02  2.942E+02
  9.922E-02  2.209E-02  1.013E+05  8.728E-06 -7.194E-03  2.943E+02  2.943E+02
  9.922E-02  2.841E-02  1.013E+05  8.408E-06 -7.478E-03  2.943E+02  2.943E+02
  9.922E-02  3.472E-02  1.013E+05  8.170E-06 -7.768E-03  2.944E+02  2.944E+02
  9.922E-02  4.103E-02  1.013E+05  7.998E-06 -8.132E-03  2.944E+02  2.944E+02
  9.922E-02  4.734E-02  1.013E+05  7.883E-06 -8.557E-03  2.945E+02  2.945E+02
  9.922E-02  5.366E-02  1.013E+05  7.964E-06 -9.051E-03  2.946E+02  2.946E+02
  9.922E-02  5.997E-02  1.013E+05  6.840E-06 -9.617E-03  2.947E+02  2.947E+02
  9.922E-02  6.628E-02  1.013E+05  5.563E-06 -1.026E-02  2.948E+02  2.948E+02
  9.922E-02  7.259E-02  1.013E+05  6.117E-06 -1.098E-02  2.950E+02  2.950E+02
  9.922E-02  7.891E-02  1.013E+05  4.853E-06 -1.177E-02  2.955E+02  2.955E+02
  9.922E-02  8.522E-02  1.013E+05  3.761E-06 -1.264E-02  2.971E+02  2.970E+02
  9.922E-02  9.153E-02  1.013E+05  3.901E-06 -1.364E-02  3.026E+02  3.023E+02
  9.922E-02  9.784E-02  1.013E+05  3.753E-06 -1.466E-02  3.214E+02  3.205E+02
  9.922E-02  1.042E-01  1.013E+05  3.600E-06 -1.476E-02  3.798E+02  3.936E+02
  9.922E-02  1.105E-01  1.013E+05  3.473E-06 -1.447E-02  3.308E+02  3.361E+02
  9.922E-02  1.168E-01  1.013E+05  3.468E-06 -1.335E-02  3.083E+02  3.106E+02
  9.922E-02  1.231E-01  1.013E+05  3.456E-06 -1.222E-02  2.995E+02  3.004E+02
  9.922E-02  1.294E-01  1.013E+05  3.684E-06 -1.120E-02  2.963E+02  2.967E+02
  9.922E-02  1.357E-01  1.013E+05  2.828E-06 -1.026E-02  2.952E+02  2.953E+02
  9.922E-02  1.420E-01  1.013E+05  4.897E-07 -9.388E-03  2.948E+02  2.948E+02
  9.922E-02  1.483E-01  1.013E+05 -1.580E-07 -8.579E-03  2.946E+02  2.946E+02
  9.922E-02  1.547E-01  1.013E+05 -1.019E-06 -7.831E-03  2.944E+02  2.944E+02
  9.922E-02  1.610E-01  1.013E+05 -2.333E-06 -7.152E-03  2.943E+02  2.943E+02
  9.922E-02  1.673E-01  1.013E+05 -1.705E-06 -6.535E-03  2.942E+02  2.942E+02
  9.922E-02  1.736E-01  1.013E+05 -3.191E-06 -5.953E-03  2.941E+02  2.941E+02
  9.922E-02  1.799E-01  1.013E+05 -3.130E-06 -5.422E-03  2.940E+02  2.940E+02
  9.922E-02  1.862E-01  1.013E+05 -1.682E-06 -4.949E-03  2.939E+02  2.939E+02
  9.922E-02  1.925E-01  1.013E+05 -2.114E-06 -4.510E-03  2.938E+02  2.938E+02
  9.922E-02  1.988E-01  1.013E+05 -1.785E-06 -4.103E-03  2.938E+02  2.938E+02
  9.922E-02  2.052E-01  1.013E+05 -2.987E-06 -3.729E-03  2.937E+02  2.937E+02
  9.922E-02  2.115E-01  1.013E+05 -4.077E-06 -3.385E-03  2.936E+02  2.936E+02
  9.922E-02  2.178E-01  1.013E+05 -3.879E-06 -3.080E-03  2.936E+02  2.936E+02
  9.922E-02  2.241E-01  1.013E+05 -3.889E-06 -2.801E-03  2.935E+02  2.935E+02
  9.922E-02  2.304E-01  1.013E+05 -3.873E-06 -2.545E-03  2.935E+02  2.935E+02
  9.922E-02  2.367E-01  1.013E+05 -3.868E-06 -2.314E-03  2.934E+02  2.934E+02
  9.922E-02  2.430E-01  1.013E+05 -3.865E-06 -2.100E-03  2.934E+02  2.934E+02
  9.922E-02  2.493E-01  1.013E+05 -3.854E-06 -1.905E-03  2.934E+02  2.934E+02
  9.922E-02  2.557E-01  1.013E+05 -3.848E-06 -1.723E-03  2.933E+02  2.933E+02
  9.922E-02  2.620E-01  1.013E+05 -3.915E-06 -1.558E-03  2.933E+02  2.933E+02
  9.922E-02  2.683E-01  1.013E+05 -3.958E-06 -1.420E-03  2.933E+02  2.933E+02
  9.922E-02  2.746E-01  1.013E+05 -3.960E-06 -1.289E-03  2.932E+02  2.932E+02
  9.922E-02  2.809E-01  1.013E+05 -4.214E-06 -1.162E-03  2.932E+02  2.932E+02
  9.922E-02  2.872E-01  1.013E+05 -3.211E-06 -1.050E-03  2.932E+02  2.932E+02
  9.922E-02  2.935E-01  1.013E+05 -1.846E-06 -9.527E-04  2.932E+02  2.932E+02
  9.922E-02  2.998E-01  1.013E+05 -3.599E-06 -8.633E-04  2.932E+02  2.932E+02
  9.922E-02  3.062E-01  1.013E+05 -3.844E-06 -7.842E-04  2.931E+02  2.931E+02
  9.922E-02  3.125E-01  1.013E+05 -1.290E-06 -7.094E-04  2.931E+02  2.931E+02
  9.922E-02  3.188E-01  1.013E+05 -4.282E-07 -6.382E-04  2.931E+02  2.931E+02
  9.922E-02  3.251E-01  1.013E+05 -5.927E-07 -5.784E-04  2.931E+02  2.931E+02
  9.922E-02  3.314E-01  1.013E+05 -5.673E-07 -5.221E-04  2.931E+02  2.931E+02
  9.922E-02  3.377E-01  1.013E+05 -3.189E-07 -4.702E-04  2.931E+02  2.931E+02