VARIABLES="XP","YP","P","U","V","TS","TF"
ZONE T="Zone 001"I=    82 J=    12 F=POINT
  0.000E+00  0.000E+00  1.013E+05  0.000E+00  0.000E+00  2.932E+02  2.934E+02
  0.000E+00  3.156E-03  1.013E+05  0.000E+00  0.000E+00  2.932E+02  2.934E+02
  0.000E+00  9.469E-03  1.013E+05  0.000E+00  0.000E+00  2.934E+02  2.935E+02
  0.000E+00  1.578E-02  1.013E+05  0.000E+00  0.000E+00  2.937E+02  2.937E+02
  0.000E+00  2.209E-02  1.013E+05  0.000E+00  0.000E+00  2.939E+02  2.940E+02
  0.000E+00  2.841E-02  1.013E+05  0.000E+00  0.000E+00  2.941E+02  2.943E+02
  0.000E+00  3.472E-02  1.013E+05  0.000E+00  0.000E+00  2.944E+02  2.947E+02
  0.000E+00  4.103E-02  1.013E+05  0.000E+00  0.000E+00  2.947E+02  2.954E+02
  0.000E+00  4.734E-02  1.013E+05  0.000E+00  0.000E+00  2.954E+02  2.966E+02
  0.000E+00  5.366E-02  1.013E+05  0.000E+00  0.000E+00  2.967E+02  2.990E+02
  0.000E+00  5.997E-02  1.013E+05  0.000E+00  0.000E+00  2.993E+02  3.027E+02
  0.000E+00  6.628E-02  1.013E+05  0.000E+00  0.000E+00  3.042E+02  3.095E+02
  0.000E+00  7.259E-02  1.013E+05  0.000E+00  0.000E+00  3.134E+02  3.207E+02
  0.000E+00  7.891E-02  1.013E+05  0.000E+00  0.000E+00  3.297E+02  3.393E+02
  0.000E+00  8.522E-02  1.013E+05  0.000E+00  0.000E+00  3.571E+02  3.713E+02
  0.000E+00  9.153E-02  1.013E+05  0.000E+00  0.000E+00  4.001E+02  4.202E+02
  0.000E+00  9.784E-02  1.013E+05  0.000E+00  0.000E+00  4.631E+02  5.008E+02
  0.000E+00  1.042E-01  1.013E+05  0.000E+00  0.000E+00  5.426E+02  6.893E+02
  0.000E+00  1.105E-01  1.013E+05  0.000E+00  0.000E+00  4.624E+02  5.025E+02
  0.000E+00  1.168E-01  1.013E+05  0.000E+00  0.000E+00  3.987E+02  4.250E+02
  0.000E+00  1.231E-01  1.013E+05  0.000E+00  0.000E+00  3.557E+02  3.741E+02
  0.000E+00  1.294E-01  1.013E+05  0.000E+00  0.000E+00  3.286E+02  3.451E+02
  0.000E+00  1.357E-01  1.013E+05  0.000E+00  0.000E+00  3.126E+02  3.258E+02
  0.000E+00  1.420E-01  1.013E+05  0.000E+00  0.000E+00  3.037E+02  3.122E+02
  0.000E+00  1.483E-01  1.013E+05  0.000E+00  0.000E+00  2.989E+02  3.041E+02
  0.000E+00  1.547E-01  1.013E+05  0.000E+00  0.000E+00  2.965E+02  2.990E+02
  0.000E+00  1.610E-01  1.013E+05  0.000E+00  0.000E+00  2.952E+02  2.965E+02
  0.000E+00  1.673E-01  1.013E+05  0.000E+00  0.000E+00  2.945E+02  2.954E+02
  0.000E+00  1.736E-01  1.013E+05  0.000E+00  0.000E+00  2.942E+02  2.946E+02
  0.000E+00  1.799E-01  1.013E+05  0.000E+00  0.000E+00  2.940E+02  2.942E+02
  0.000E+00  1.862E-01  1.013E+05  0.000E+00  0.000E+00  2.939E+02  2.940E+02
  0.000E+00  1.925E-01  1.013E+05  0.000E+00  0.000E+00  2.937E+02  2.938E+02
  0.000E+00  1.988E-01  1.013E+05  0.000E+00  0.000E+00  2.937E+02  2.937E+02
  0.000E+00  2.052E-01  1.013E+05  0.000E+00  0.000E+00  2.936E+02  2.936E+02
  0.000E+00  2.115E-01  1.013E+05  0.000E+00  0.000E+00  2.935E+02  2.936E+02
  0.000E+00  2.178E-01  1.013E+05  0.000E+00  0.000E+00  2.935E+02  2.935E+02
  0.000E+00  2.241E-01  1.013E+05  0.000E+00  0.000E+00  2.934E+02  2.934E+02
  0.000E+00  2.304E-01  1.013E+05  0.000E+00  0.000E+00  2.934E+02  2.934E+02
  0.000E+00  2.367E-01  1.013E+05  0.000E+00  0.000E+00  2.933E+02  2.933E+02
  0.000E+00  2.430E-01  1.013E+05  0.000E+00  0.000E+00  2.933E+02  2.933E+02
  0.000E+00  2.493E-01  1.013E+05  0.000E+00  0.000E+00  2.933E+02  2.933E+02
  0.000E+00  2.557E-01  1.013E+05  0.000E+00  0.000E+00  2.932E+02  2.932E+02
  0.000E+00  2.620E-01  1.013E+05  0.000E+00  0.000E+00  2.932E+02  2.932E+02
  0.000E+00  2.683E-01  1.013E+05  0.000E+00  0.000E+00  2.932E+02  2.932E+02
  0.000E+00  2.746E-01  1.013E+05  0.000E+00  0.000E+00  2.932E+02  2.932E+02
  0.000E+00  2.809E-01  1.013E+05  0.000E+00  0.000E+00  2.931E+02  2.931E+02
  0.000E+00  2.872E-01  1.013E+05  0.000E+00  0.000E+00  2.931E+02  2.931E+02
  0.000E+00  2.935E-01  1.013E+05  0.000E+00  0.000E+00  2.931E+02  2.931E+02
  0.000E+00  2.998E-01  1.013E+05  0.000E+00  0.000E+00  2.931E+02  2.931E+02
  0.000E+00  3.062E-01  1.013E+05  0.000E+00  0.000E+00  2.931E+02  2.931E+02
  0.000E+00  3.125E-01  1.013E+05  0.000E+00  0.000E+00  2.931E+02  2.931E+02
  0.000E+00  3.188E-01  1.013E+05  0.000E+00  0.000E+00  2.931E+02  2.931E+02
  0.000E+00  3.251E-01  1.013E+05  0.000E+00  0.000E+00  2.931E+02  2.931E+02
  0.000E+00  3.314E-01  1.013E+05  0.000E+00  0.000E+00  2.931E+02  2.931E+02
  0.000E+00  3.377E-01  1.013E+05  0.000E+00  0.000E+00  2.931E+02  2.931E+02
  0.000E+00  3.440E-01  1.013E+05  0.000E+00  0.000E+00  2.930E+02  2.930E+02
  0.000E+00  3.503E-01  1.013E+05  0.000E+00  0.000E+00  2.930E+02  2.930E+02
  0.000E+00  3.567E-01  1.013E+05  0.000E+00  0.000E+00  2.930E+02  2.930E+02
  0.000E+00  3.630E-01  1.013E+05  0.000E+00  0.000E+00  2.930E+02  2.930E+02
  0.000E+00  3.693E-01  1.013E+05  0.000E+00  0.000E+00  2.930E+02  2.930E+02
  0.000E+00  3.756E-01  1.013E+05  0.000E+00  0.000E+00  2.930E+02  2.930E+02
  0.000E+00  3.819E-01  1.013E+05  0.000E+00  0.000E+00  2.930E+02  2.930E+02
  0.000E+00  3.882E-01  1.013E+05  0.000E+00  0.000E+00  2.930E+02  2.930E+02
  0.000E+00  3.945E-01  1.013E+05  0.000E+00  0.000E+00  2.930E+02  2.930E+02
  0.000E+00  4.008E-01  1.013E+05  0.000E+00  0.000E+00  2.930E+02  2.930E+02
  0.000E+00  4.072E-01  1.013E+05  0.000E+00  0.000E+00  2.930E+02  2.930E+02
  0.000E+00  4.135E-01  1.013E+05  0.000E+00  0.000E+00  2.930E+02  2.930E+02
  0.000E+00  4.198E-01  1.013E+05  0.000E+00  0.000E+00  2.930E+02  2.930E+02
  0.000E+00  4.261E-01  1.013E+05  0.000E+00  0.000E+00  2.930E+02  2.930E+02
  0.000E+00  4.324E-01  1.013E+05  0.000E+00  0.000E+00  2.930E+02  2.930E+02
  0.000E+00  4.387E-01  1.013E+05  0.000E+00  0.000E+00  2.930E+02  2.930E+02
  0.000E+00  4.450E-01  1.013E+05  0.000E+00  0.000E+00  2.930E+02  2.930E+02
  0.000E+00  4.513E-01  1.013E+05  0.000E+00  0.000E+00  2.930E+02  2.930E+02
  0.000E+00  4.577E-01  1.013E+05  0.000E+00  0.000E+00  2.930E+02  2.930E+02
  0.000E+00  4.640E-01  1.013E+05  0.000E+00  0.000E+00  2.930E+02  2.930E+02
  0.000E+00  4.703E-01  1.013E+05  0.000E+00  0.000E+00  2.930E+02  2.930E+02
  0.000E+00  4.766E-01  1.013E+05  0.000E+00  0.000E+00  2.930E+02  2.930E+02
  0.000E+00  4.829E-01  1.013E+05  0.000E+00  0.000E+00  2.930E+02  2.930E+02
  0.000E+00  4.892E-01  1.013E+05  0.000E+00  0.000E+00  2.930E+02  2.930E+02
  0.000E+00  4.955E-01  1.013E+05  0.000E+00  0.000E+00  2.930E+02  2.930E+02
  0.000E+00  5.018E-01  1.013E+05  0.000E+00  0.000E+00  2.930E+02  2.930E+02
  0.000E+00  5.050E-01  1.013E+05  0.000E+00  0.000E+00  2.930E+02  2.930E+02
  1.417E-02  0.000E+00  1.013E+05  0.000E+00  0.000E+00  2.930E+02  2.934E+02
  1.417E-02  3.156E-03  1.013E+05 -2.019E-08  1.589E-06  2.932E+02  2.934E+02
  1.417E-02  9.469E-03  1.013E+05 -2.383E-08  2.447E-06  2.934E+02  2.935E+02
  1.417E-02  1.578E-02  1.013E+05 -2.433E-08 -1.054E-06  2.937E+02  2.937E+02
  1.417E-02  2.209E-02  1.013E+05 -3.937E-08 -1.207E-05  2.939E+02  2.940E+02
  1.417E-02  2.841E-02  1.013E+05 -1.602E-08 -1.104E-05  2.941E+02  2.943E+02
  1.417E-02  3.472E-02  1.013E+05  2.537E-08  1.600E-06  2.944E+02  2.947E+02
  1.417E-02  4.103E-02  1.013E+05  1.230E-07  8.872E-06  2.947E+02  2.954E+02
  1.417E-02  4.734E-02  1.013E+05  1.987E-07  7.565E-06  2.954E+02  2.966E+02
  1.417E-02  5.366E-02  1.013E+05  5.552E-07  5.493E-06  2.967E+02  2.990E+02
  1.417E-02  5.997E-02  1.013E+05 -3.723E-07  1.015E-05  2.993E+02  3.027E+02
  1.417E-02  6.628E-02  1.013E+05 -1.000E-05  9.371E-06  3.042E+02  3.095E+02
  1.417E-02  7.259E-02  1.013E+05 -1.423E-07  2.637E-06  3.134E+02  3.207E+02
  1.417E-02  7.891E-02  1.013E+05  8.992E-07  8.961E-06  3.297E+02  3.393E+02
  1.417E-02  8.522E-02  1.013E+05  8.283E-08 -3.202E-06  3.571E+02  3.713E+02
  1.417E-02  9.153E-02  1.013E+05 -1.034E-06 -1.209E-05  4.001E+02  4.202E+02
  1.417E-02  9.784E-02  1.013E+05 -1.745E-06 -1.215E-04  4.631E+02  5.008E+02
  1.417E-02  1.042E-01  1.013E+05 -1.693E-06  6.533E-04  5.426E+02  6.893E+02
  1.417E-02  1.105E-01  1.013E+05 -1.953E-06 -1.287E-04  4.624E+02  5.025E+02
  1.417E-02  1.168E-01  1.013E+05 -8.704E-07  2.565E-05  3.987E+02  4.250E+02
  1.417E-02  1.231E-01  1.013E+05 -1.552E-07  4.174E-05  3.557E+02  3.741E+02
  1.417E-02  1.294E-01  1.013E+05 -9.093E-06  1.702E-05  3.286E+02  3.451E+02
  1.417E-02  1.357E-01  1.013E+05  8.573E-07  1.157E-05  3.126E+02  3.258E+02
  1.417E-02  1.420E-01  1.013E+05  1.717E-06  7.567E-06  3.037E+02  3.122E+02
  1.417E-02  1.483E-01  1.013E+05  1.174E-06  7.711E-06  2.989E+02  3.041E+02
  1.417E-02  1.547E-01  1.013E+05  9.720E-07 -2.714E-06  2.965E+02  2.990E+02
  1.417E-02  1.610E-01  1.013E+05  6.627E-07 -4.863E-06  2.952E+02  2.965E+02
  1.417E-02  1.673E-01  1.013E+05  4.889E-07  3.417E-06  2.945E+02  2.954E+02
  1.417E-02  1.736E-01  1.013E+05  3.649E-07  5.898E-06  2.942E+02  2.946E+02
  1.417E-02  1.799E-01  1.013E+05  2.754E-07  4.054E-06  2.940E+02  2.942E+02
  1.417E-02  1.862E-01  1.013E+05  2.100E-07  3.482E-06  2.939E+02  2.940E+02
  1.417E-02  1.925E-01  1.013E+05  1.620E-07  2.974E-06  2.937E+02  2.938E+02
  1.417E-02  1.988E-01  1.013E+05  1.270E-07  2.608E-06  2.937E+02  2.937E+02
  1.417E-02  2.052E-01  1.013E+05  1.019E-07  2.307E-06  2.936E+02  2.936E+02
  1.417E-02  2.115E-01  1.013E+05  8.427E-08  2.052E-06  2.935E+02  2.936E+02
  1.417E-02  2.178E-01  1.013E+05  7.293E-08  1.829E-06  2.935E+02  2.935E+02
  1.417E-02  2.241E-01  1.013E+05  6.717E-08  1.631E-06  2.934E+02  2.934E+02
  1.417E-02  2.304E-01  1.013E+05  6.708E-08  1.448E-06  2.934E+02  2.934E+02
  1.417E-02  2.367E-01  1.013E+05  7.340E-08  1.301E-06  2.933E+02  2.933E+02
  1.417E-02  2.430E-01  1.013E+05  8.849E-08  1.031E-06  2.933E+02  2.933E+02
  1.417E-02  2.493E-01  1.013E+05  1.132E-07  1.576E-06  2.933E+02  2.933E+02
  1.417E-02  2.557E-01  1.013E+05  1.610E-07 -2.833E-06  2.932E+02  2.932E+02
  1.417E-02  2.620E-01  1.013E+05  2.218E-07 -1.471E-05  2.932E+02  2.932E+02
  1.417E-02  2.683E-01  1.013E+05  2.243E-07 -1.471E-05  2.932E+02  2.932E+02
  1.417E-02  2.746E-01  1.013E+05  1.647E-07 -2.998E-06  2.932E+02  2.932E+02
  1.417E-02  2.809E-01  1.013E+05  1.130E-07  1.140E-06  2.931E+02  2.931E+02
  1.417E-02  2.872E-01  1.013E+05  8.247E-08  3.968E-07  2.931E+02  2.931E+02
  1.417E-02  2.935E-01  1.013E+05  5.964E-08  4.575E-07  2.931E+02  2.931E+02
  1.417E-02  2.998E-01  1.013E+05  4.390E-08  3.954E-07  2.931E+02  2.931E+02
  1.417E-02  3.062E-01  1.013E+05  3.264E-08  3.582E-07  2.931E+02  2.931E+02
  1.417E-02  3.125E-01  1.013E+05  2.460E-08  3.221E-07  2.931E+02  2.931E+02
  1.417E-02  3.188E-01  1.013E+05  1.879E-08  2.901E-07  2.931E+02  2.931E+02
  1.417E-02  3.251E-01  1.013E+05  1.455E-08  2.613E-07  2.931E+02  2.931E+02
  1.417E-02  3.314E-01  1.013E+05  1.143E-08  2.353E-07  2.931E+02  2.931E+02
  1.417E-02  3.377E-01  1.013E+05  9.104E-09  2.118E-07  2.931E+02  2.931E+02
  1.417E-02  3.440E-01  1.013E+05  7.354E-09  1.906E-07  2.930E+02  2.930E+02
  1.417E-02  3.503E-01  1.013E+05  6.022E-09  1.713E-07  2.930E+02  2.930E+02
  1.417E-02  3.567E-01  1.013E+05  4.997E-09  1.538E-07  2.930E+02  2.930E+02
  1.417E-02  3.630E-01  1.013E+05  4.200E-09  1.380E-07  2.930E+02  2.930E+02
  1.417E-02  3.693E-01  1.013E+05  3.573E-09  1.237E-07  2.930E+02  2.930E+02
  1.417E-02  3.756E-01  1.013E+05  3.075E-09  1.107E-07  2.930E+02  2.930E+02
  1.417E-02  3.819E-01  1.013E+05  2.672E-09  9.895E-08  2.930E+02  2.930E+02
  1.417E-02  3.882E-01  1.013E+05  2.343E-09  8.835E-08  2.930E+02  2.930E+02
  1.417E-02  3.945E-01  1.013E+05  2.068E-09  7.879E-08  2.930E+02  2.930E+02
  1.417E-02  4.008E-01  1.013E+05  1.834E-09  7.019E-08  2.930E+02  2.930E+02
  1.417E-02  4.072E-01  1.013E+05  1.632E-09  6.247E-08  2.930E+02  2.930E+02
  1.417E-02  4.135E-01  1.013E+05  1.453E-09  5.556E-08  2.930E+02  2.930E+02
  1.417E-02  4.198E-01  1.013E+05  1.295E-09  4.939E-08  2.930E+02  2.930E+02
  1.417E-02  4.261E-01  1.013E+05  1.153E-09  4.390E-08  2.930E+02  2.930E+02
  1.417E-02  4.324E-01  1.013E+05  1.025E-09  3.900E-08  2.930E+02  2.930E+02
  1.417E-02  4.387E-01  1.013E+05  9.101E-10  3.463E-08  2.930E+02  2.930E+02
  1.417E-02  4.450E-01  1.013E+05  8.055E-10  3.071E-08  2.930E+02  2.930E+02
  1.417E-02  4.513E-01  1.013E+05  7.093E-10  2.717E-08  2.930E+02  2.930E+02
  1.417E-02  4.577E-01  1.013E+05  6.199E-10  2.394E-08  2.930E+02  2.930E+02
  1.417E-02  4.640E-01  1.013E+05  5.359E-10  2.096E-08  2.930E+02  2.930E+02
  1.417E-02  4.703E-01  1.013E+05  4.561E-10  1.821E-08  2.930E+02  2.930E+02
  1.417E-02  4.766E-01  1.013E+05  3.792E-10  1.563E-08  2.930E+02  2.930E+02
  1.417E-02  4.829E-01  1.013E+05  3.044E-10  1.315E-08  2.930E+02  2.930E+02
  1.417E-02  4.892E-01  1.013E+05  2.322E-10  1.091E-08  2.930E+02  2.930E+02
  1.417E-02  4.955E-01  1.013E+05  1.563E-10  7.894E-09  2.930E+02  2.930E+02
  1.417E-02  5.018E-01  1.013E+05  1.154E-10  9.736E-09  2.930E+02  2.930E+02
  1.417E-02  5.050E-01  1.013E+05  1.154E-10  9.736E-09  2.930E+02  2.930E+02
  4.252E-02  0.000E+00  1.013E+05  0.000E+00  0.000E+00  2.930E+02  2.934E+02
  4.252E-02  3.156E-03  1.013E+05 -2.538E-07  1.632E-06  2.932E+02  2.934E+02
  4.252E-02  9.469E-03  1.013E+05 -2.672E-07  2.518E-06  2.935E+02  2.936E+02
  4.252E-02  1.578E-02  1.013E+05 -2.892E-07 -1.006E-06  2.937E+02  2.938E+02
  4.252E-02  2.209E-02  1.013E+05 -3.388E-07 -1.191E-05  2.939E+02  2.940E+02
  4.252E-02  2.841E-02  1.013E+05 -3.640E-07 -1.068E-05  2.941E+02  2.943E+02
  4.252E-02  3.472E-02  1.013E+05 -3.889E-07  2.294E-06  2.944E+02  2.948E+02
  4.252E-02  4.103E-02  1.013E+05 -3.867E-07  9.698E-06  2.948E+02  2.955E+02
  4.252E-02  4.734E-02  1.013E+05 -4.445E-07  9.522E-06  2.954E+02  2.969E+02
  4.252E-02  5.366E-02  1.013E+05 -2.666E-07  2.950E-06  2.967E+02  2.997E+02
  4.252E-02  5.997E-02  1.013E+05 -1.397E-06  1.058E-06  2.993E+02  3.038E+02
  4.252E-02  6.628E-02  1.013E+05 -2.791E-06  1.215E-05  3.042E+02  3.116E+02
  4.252E-02  7.259E-02  1.013E+05 -9.976E-07  1.887E-05  3.134E+02  3.248E+02
  4.252E-02  7.891E-02  1.013E+05  4.620E-07  1.923E-05  3.297E+02  3.447E+02
  4.252E-02  8.522E-02  1.013E+05  8.640E-07  1.188E-05  3.571E+02  3.751E+02
  4.252E-02  9.153E-02  1.013E+05  1.147E-06  3.468E-06  4.000E+02  4.237E+02
  4.252E-02  9.784E-02  1.013E+05 -7.723E-07 -1.228E-04  4.632E+02  5.010E+02
  4.252E-02  1.042E-01  1.013E+05 -1.925E-06  6.492E-04  5.427E+02  6.898E+02
  4.252E-02  1.105E-01  1.013E+05 -2.060E-06 -1.306E-04  4.625E+02  5.036E+02
  4.252E-02  1.168E-01  1.013E+05 -1.312E-06 -9.853E-06  3.988E+02  4.280E+02
  4.252E-02  1.231E-01  1.013E+05  5.506E-07  5.306E-06  3.558E+02  3.774E+02
  4.252E-02  1.294E-01  1.013E+05  1.548E-06  3.093E-06  3.288E+02  3.438E+02
  4.252E-02  1.357E-01  1.013E+05  1.806E-06  1.124E-05  3.128E+02  3.229E+02
  4.252E-02  1.420E-01  1.013E+05  1.628E-06  9.182E-06  3.038E+02  3.109E+02
  4.252E-02  1.483E-01  1.013E+05  1.321E-06  1.367E-06  2.990E+02  3.037E+02
  4.252E-02  1.547E-01  1.013E+05  1.100E-06 -3.155E-06  2.966E+02  2.991E+02
  4.252E-02  1.610E-01  1.013E+05  7.984E-07 -5.957E-06  2.953E+02  2.966E+02
  4.252E-02  1.673E-01  1.013E+05  6.180E-07  2.679E-06  2.946E+02  2.954E+02
  4.252E-02  1.736E-01  1.013E+05  4.858E-07  5.402E-06  2.943E+02  2.947E+02
  4.252E-02  1.799E-01  1.013E+05  3.866E-07  3.741E-06  2.941E+02  2.943E+02
  4.252E-02  1.862E-01  1.013E+05  3.110E-07  3.293E-06  2.939E+02  2.940E+02
  4.252E-02  1.925E-01  1.013E+05  2.528E-07  2.868E-06  2.938E+02  2.939E+02
  4.252E-02  1.988E-01  1.013E+05  2.077E-07  2.558E-06  2.937E+02  2.937E+02
  4.252E-02  2.052E-01  1.013E+05  1.724E-07  2.297E-06  2.936E+02  2.936E+02
  4.252E-02  2.115E-01  1.013E+05  1.442E-07  2.072E-06  2.936E+02  2.936E+02
  4.252E-02  2.178E-01  1.013E+05  1.213E-07  1.876E-06  2.935E+02  2.935E+02
  4.252E-02  2.241E-01  1.013E+05  1.024E-07  1.708E-06  2.934E+02  2.935E+02
  4.252E-02  2.304E-01  1.013E+05  8.605E-08  1.562E-06  2.934E+02  2.934E+02
  4.252E-02  2.367E-01  1.013E+05  7.273E-08  1.469E-06  2.933E+02  2.934E+02
  4.252E-02  2.430E-01  1.013E+05  5.511E-08  1.269E-06  2.933E+02  2.933E+02
  4.252E-02  2.493E-01  1.013E+05  7.408E-08  1.951E-06  2.933E+02  2.933E+02
  4.252E-02  2.557E-01  1.013E+05 -1.222E-07 -2.304E-06  2.932E+02  2.932E+02
  4.252E-02  2.620E-01  1.013E+05  1.001E-06 -1.439E-05  2.932E+02  2.932E+02
  4.252E-02  2.683E-01  1.013E+05  2.468E-06 -1.493E-05  2.932E+02  2.932E+02
  4.252E-02  2.746E-01  1.013E+05  9.309E-07 -3.464E-06  2.932E+02  2.932E+02
  4.252E-02  2.809E-01  1.013E+05 -1.906E-07  8.005E-07  2.932E+02  2.932E+02
  4.252E-02  2.872E-01  1.013E+05  1.747E-08  1.841E-07  2.931E+02  2.931E+02
  4.252E-02  2.935E-01  1.013E+05 -4.462E-09  3.099E-07  2.931E+02  2.931E+02
  4.252E-02  2.998E-01  1.013E+05  7.657E-09  2.985E-07  2.931E+02  2.931E+02
  4.252E-02  3.062E-01  1.013E+05  1.076E-08  2.940E-07  2.931E+02  2.931E+02
  4.252E-02  3.125E-01  1.013E+05  1.307E-08  2.803E-07  2.931E+02  2.931E+02
  4.252E-02  3.188E-01  1.013E+05  1.397E-08  2.634E-07  2.931E+02  2.931E+02
  4.252E-02  3.251E-01  1.013E+05  1.409E-08  2.447E-07  2.931E+02  2.931E+02
  4.252E-02  3.314E-01  1.013E+05  1.369E-08  2.255E-07  2.931E+02  2.931E+02
  4.252E-02  3.377E-01  1.013E+05  1.299E-08  2.066E-07  2.931E+02  2.931E+02
  4.252E-02  3.440E-01  1.013E+05  1.214E-08  1.883E-07  2.930E+02  2.931E+02
  4.252E-02  3.503E-01  1.013E+05  1.122E-08  1.710E-07  2.930E+02  2.930E+02
  4.252E-02  3.567E-01  1.013E+05  1.031E-08  1.548E-07  2.930E+02  2.930E+02
  4.252E-02  3.630E-01  1.013E+05  9.449E-09  1.397E-07  2.930E+02  2.930E+02
  4.252E-02  3.693E-01  1.013E+05  8.648E-09  1.258E-07  2.930E+02  2.930E+02
  4.252E-02  3.756E-01  1.013E+05  7.917E-09  1.129E-07  2.930E+02  2.930E+02
  4.252E-02  3.819E-01  1.013E+05  7.252E-09  1.012E-07  2.930E+02  2.930E+02
  4.252E-02  3.882E-01  1.013E+05  6.646E-09  9.044E-08  2.930E+02  2.930E+02
  4.252E-02  3.945E-01  1.013E+05  6.089E-09  8.068E-08  2.930E+02  2.930E+02
  4.252E-02  4.008E-01  1.013E+05  5.569E-09  7.183E-08  2.930E+02  2.930E+02
  4.252E-02  4.072E-01  1.013E+05  5.080E-09  6.383E-08  2.930E+02  2.930E+02
  4.252E-02  4.135E-01  1.013E+05  4.615E-09  5.663E-08  2.930E+02  2.930E+02
  4.252E-02  4.198E-01  1.013E+05  4.173E-09  5.018E-08  2.930E+02  2.930E+02
  4.252E-02  4.261E-01  1.013E+05  3.752E-09  4.440E-08  2.930E+02  2.930E+02
  4.252E-02  4.324E-01  1.013E+05  3.355E-09  3.926E-08  2.930E+02  2.930E+02
  4.252E-02  4.387E-01  1.013E+05  2.982E-09  3.467E-08  2.930E+02  2.930E+02
  4.252E-02  4.450E-01  1.013E+05  2.634E-09  3.057E-08  2.930E+02  2.930E+02
  4.252E-02  4.513E-01  1.013E+05  2.310E-09  2.688E-08  2.930E+02  2.930E+02
  4.252E-02  4.577E-01  1.013E+05  2.009E-09  2.355E-08  2.930E+02  2.930E+02
  4.252E-02  4.640E-01  1.013E+05  1.728E-09  2.050E-08  2.930E+02  2.930E+02
  4.252E-02  4.703E-01  1.013E+05  1.464E-09  1.770E-08  2.930E+02  2.930E+02
  4.252E-02  4.766E-01  1.013E+05  1.213E-09  1.508E-08  2.930E+02  2.930E+02
  4.252E-02  4.829E-01  1.013E+05  9.728E-10  1.259E-08  2.930E+02  2.930E+02
  4.252E-02  4.892E-01  1.013E+05  7.426E-10  1.032E-08  2.930E+02  2.930E+02
  4.252E-02  4.955E-01  1.013E+05  5.002E-10  7.404E-09  2.930E+02  2.930E+02
  4.252E-02  5.018E-01  1.013E+05  3.689E-10  8.514E-09  2.930E+02  2.930E+02
  4.252E-02  5.050E-01  1.013E+05  3.689E-10  8.514E-09  2.930E+02  2.930E+02
  7.087E-02  0.000E+00  1.013E+05  0.000E+00  0.000E+00  2.930E+02  2.934E+02
  7.087E-02  3.156E-03  1.013E+05 -3.308E-07  1.552E-06  2.932E+02  2.934E+02
  7.087E-02  9.469E-03  1.013E+05 -3.363E-07  2.317E-06  2.935E+02  2.936E+02
  7.087E-02  1.578E-02  1.013E+05 -3.471E-07 -1.353E-06  2.937E+02  2.938E+02
  7.087E-02  2.209E-02  1.013E+05 -3.627E-07 -1.243E-05  2.939E+02  2.940E+02
  7.087E-02  2.841E-02  1.013E+05 -3.796E-07 -1.141E-05  2.941E+02  2.943E+02
  7.087E-02  3.472E-02  1.013E+05 -3.974E-07  1.303E-06  2.944E+02  2.948E+02
  7.087E-02  4.103E-02  1.013E+05 -4.192E-07  8.260E-06  2.947E+02  2.955E+02
  7.087E-02  4.734E-02  1.013E+05 -4.472E-07  7.354E-06  2.954E+02  2.970E+02
  7.087E-02  5.366E-02  1.013E+05 -4.743E-07 -3.072E-07  2.967E+02  2.999E+02
  7.087E-02  5.997E-02  1.013E+05 -5.126E-07 -4.853E-06  2.993E+02  3.042E+02
  7.087E-02  6.628E-02  1.013E+05 -6.690E-07  4.321E-06  3.042E+02  3.128E+02
  7.087E-02  7.259E-02  1.013E+05 -5.485E-07  3.557E-06  3.134E+02  3.270E+02
  7.087E-02  7.891E-02  1.013E+05  1.600E-08  6.232E-06  3.298E+02  3.465E+02
  7.087E-02  8.522E-02  1.013E+05  4.206E-07  1.592E-05  3.570E+02  3.796E+02
  7.087E-02  9.153E-02  1.013E+05  2.980E-07 -9.310E-06  3.998E+02  4.315E+02
  7.087E-02  9.784E-02  1.013E+05  4.903E-07 -1.384E-04  4.632E+02  5.026E+02
  7.087E-02  1.042E-01  1.013E+05  6.287E-07  6.433E-04  5.427E+02  6.900E+02
  7.087E-02  1.105E-01  1.013E+05  9.248E-07 -1.319E-04  4.625E+02  5.044E+02
  7.087E-02  1.168E-01  1.013E+05  5.631E-07 -6.186E-06  3.987E+02  4.318E+02
  7.087E-02  1.231E-01  1.013E+05  7.981E-07  1.353E-05  3.558E+02  3.811E+02
  7.087E-02  1.294E-01  1.013E+05  1.895E-06  1.851E-06  3.287E+02  3.467E+02
  7.087E-02  1.357E-01  1.013E+05  4.904E-07  3.439E-07  3.128E+02  3.244E+02
  7.087E-02  1.420E-01  1.013E+05 -5.610E-07  5.567E-06  3.038E+02  3.118E+02
  7.087E-02  1.483E-01  1.013E+05 -4.230E-07  2.558E-06  2.991E+02  3.032E+02
  7.087E-02  1.547E-01  1.013E+05 -4.457E-07 -3.069E-06  2.966E+02  2.991E+02
  7.087E-02  1.610E-01  1.013E+05 -2.565E-07 -5.815E-06  2.953E+02  2.966E+02
  7.087E-02  1.673E-01  1.013E+05 -1.430E-07  2.712E-06  2.947E+02  2.954E+02
  7.087E-02  1.736E-01  1.013E+05 -5.313E-08  5.395E-06  2.943E+02  2.947E+02
  7.087E-02  1.799E-01  1.013E+05  1.091E-08  3.704E-06  2.941E+02  2.943E+02
  7.087E-02  1.862E-01  1.013E+05  5.475E-08  3.238E-06  2.939E+02  2.940E+02
  7.087E-02  1.925E-01  1.013E+05  8.322E-08  2.800E-06  2.938E+02  2.939E+02
  7.087E-02  1.988E-01  1.013E+05  1.003E-07  2.478E-06  2.937E+02  2.937E+02
  7.087E-02  2.052E-01  1.013E+05  1.090E-07  2.205E-06  2.936E+02  2.937E+02
  7.087E-02  2.115E-01  1.013E+05  1.116E-07  1.967E-06  2.936E+02  2.936E+02
  7.087E-02  2.178E-01  1.013E+05  1.095E-07  1.752E-06  2.935E+02  2.935E+02
  7.087E-02  2.241E-01  1.013E+05  1.038E-07  1.557E-06  2.934E+02  2.934E+02
  7.087E-02  2.304E-01  1.013E+05  9.474E-08  1.378E-06  2.934E+02  2.934E+02
  7.087E-02  2.367E-01  1.013E+05  8.351E-08  1.208E-06  2.933E+02  2.934E+02
  7.087E-02  2.430E-01  1.013E+05  6.219E-08  1.069E-06  2.933E+02  2.933E+02
  7.087E-02  2.493E-01  1.013E+05  7.400E-08  8.006E-07  2.933E+02  2.933E+02
  7.087E-02  2.557E-01  1.013E+05 -1.465E-07  1.342E-06  2.932E+02  2.932E+02
  7.087E-02  2.620E-01  1.013E+05  9.645E-07 -3.069E-06  2.932E+02  2.932E+02
  7.087E-02  2.683E-01  1.013E+05  2.467E-06 -1.501E-05  2.932E+02  2.932E+02
  7.087E-02  2.746E-01  1.013E+05  1.032E-06 -1.493E-05  2.932E+02  2.932E+02
  7.087E-02  2.809E-01  1.013E+05 -1.237E-07 -2.957E-06  2.931E+02  2.931E+02
  7.087E-02  2.872E-01  1.013E+05  6.385E-08  1.238E-06  2.931E+02  2.931E+02
  7.087E-02  2.935E-01  1.013E+05  3.122E-08  4.231E-07  2.931E+02  2.931E+02
  7.087E-02  2.998E-01  1.013E+05  3.553E-08  4.775E-07  2.931E+02  2.931E+02
  7.087E-02  3.062E-01  1.013E+05  3.358E-08  4.007E-07  2.931E+02  2.931E+02
  7.087E-02  3.125E-01  1.013E+05  3.229E-08  3.568E-07  2.931E+02  2.931E+02
  7.087E-02  3.188E-01  1.013E+05  3.057E-08  3.158E-07  2.931E+02  2.931E+02
  7.087E-02  3.251E-01  1.013E+05  2.864E-08  2.809E-07  2.931E+02  2.931E+02
  7.087E-02  3.314E-01  1.013E+05  2.658E-08  2.501E-07  2.931E+02  2.931E+02
  7.087E-02  3.377E-01  1.013E+05  2.448E-08  2.229E-07  2.931E+02  2.931E+02
  7.087E-02  3.440E-01  1.013E+05  2.241E-08  1.986E-07  2.931E+02  2.931E+02
  7.087E-02  3.503E-01  1.013E+05  2.044E-08  1.768E-07  2.930E+02  2.930E+02
  7.087E-02  3.567E-01  1.013E+05  1.861E-08  1.573E-07  2.930E+02  2.930E+02
  7.087E-02  3.630E-01  1.013E+05  1.693E-08  1.397E-07  2.930E+02  2.930E+02
  7.087E-02  3.693E-01  1.013E+05  1.541E-08  1.240E-07  2.930E+02  2.930E+02
  7.087E-02  3.756E-01  1.013E+05  1.405E-08  1.099E-07  2.930E+02  2.930E+02
  7.087E-02  3.819E-01  1.013E+05  1.281E-08  9.738E-08  2.930E+02  2.930E+02
  7.087E-02  3.882E-01  1.013E+05  1.169E-08  8.624E-08  2.930E+02  2.930E+02
  7.087E-02  3.945E-01  1.013E+05  1.066E-08  7.637E-08  2.930E+02  2.930E+02
  7.087E-02  4.008E-01  1.013E+05  9.699E-09  6.764E-08  2.930E+02  2.930E+02
  7.087E-02  4.072E-01  1.013E+05  8.801E-09  5.992E-08  2.930E+02  2.930E+02
  7.087E-02  4.135E-01  1.013E+05  7.956E-09  5.309E-08  2.930E+02  2.930E+02
  7.087E-02  4.198E-01  1.013E+05  7.160E-09  4.704E-08  2.930E+02  2.930E+02
  7.087E-02  4.261E-01  1.013E+05  6.413E-09  4.166E-08  2.930E+02  2.930E+02
  7.087E-02  4.324E-01  1.013E+05  5.715E-09  3.686E-08  2.930E+02  2.930E+02
  7.087E-02  4.387E-01  1.013E+05  5.067E-09  3.255E-08  2.930E+02  2.930E+02
  7.087E-02  4.450E-01  1.013E+05  4.467E-09  2.867E-08  2.930E+02  2.930E+02
  7.087E-02  4.513E-01  1.013E+05  3.915E-09  2.514E-08  2.930E+02  2.930E+02
  7.087E-02  4.577E-01  1.013E+05  3.404E-09  2.192E-08  2.930E+02  2.930E+02
  7.087E-02  4.640E-01  1.013E+05  2.930E-09  1.895E-08  2.930E+02  2.930E+02
  7.087E-02  4.703E-01  1.013E+05  2.486E-09  1.620E-08  2.930E+02  2.930E+02
  7.087E-02  4.766E-01  1.013E+05  2.066E-09  1.362E-08  2.930E+02  2.930E+02
  7.087E-02  4.829E-01  1.013E+05  1.663E-09  1.117E-08  2.930E+02  2.930E+02
  7.087E-02  4.892E-01  1.013E+05  1.275E-09  8.876E-09  2.930E+02  2.930E+02
  7.087E-02  4.955E-01  1.013E+05  8.635E-10  6.244E-09  2.930E+02  2.930E+02
  7.087E-02  5.018E-01  1.013E+05  6.379E-10  5.772E-09  2.930E+02  2.930E+02
  7.087E-02  5.050E-01  1.013E+05  6.379E-10  5.772E-09  2.930E+02  2.930E+02
  9.922E-02  0.000E+00  1.013E+05  0.000E+00  0.000E+00  2.930E+02  2.934E+02
  9.922E-02  3.156E-03  1.013E+05 -2.160E-07  1.609E-06  2.932E+02  2.934E+02
  9.922E-02  9.469E-03  1.013E+05 -2.117E-07  2.450E-06  2.935E+02  2.936E+02
  9.922E-02  1.578E-02  1.013E+05 -2.016E-07 -1.117E-06  2.937E+02  2.938E+02
  9.922E-02  2.209E-02  1.013E+05 -1.747E-07 -1.206E-05  2.939E+02  2.940E+02
  9.922E-02  2.841E-02  1.013E+05 -1.709E-07 -1.088E-05  2.942E+02  2.943E+02
  9.922E-02  3.472E-02  1.013E+05 -4.963E-08  2.112E-06  2.944E+02  2.948E+02
  9.922E-02  4.103E-02  1.013E+05  5.814E-08  9.478E-06  2.948E+02  2.955E+02
  9.922E-02  4.734E-02  1.013E+05  2.051E-07  9.275E-06  2.954E+02  2.970E+02
  9.922E-02  5.366E-02  1.013E+05  3.527E-07  2.768E-06  2.967E+02  2.998E+02
  9.922E-02  5.997E-02  1.013E+05  5.339E-07 -6.438E-08  2.993E+02  3.041E+02
  9.922E-02  6.628E-02  1.013E+05  5.277E-07  1.310E-05  3.042E+02  3.124E+02
  9.922E-02  7.259E-02  1.013E+05  4.083E-07  1.424E-05  3.135E+02  3.249E+02
  9.922E-02  7.891E-02  1.013E+05  1.062E-07  1.094E-05  3.298E+02  3.453E+02
  9.922E-02  8.522E-02  1.013E+05  9.608E-08  1.247E-05  3.571E+02  3.758E+02
  9.922E-02  9.153E-02  1.013E+05 -7.101E-08  6.584E-06  4.000E+02  4.241E+02
  9.922E-02  9.784E-02  1.013E+05 -1.274E-07 -1.230E-04  4.632E+02  5.009E+02
  9.922E-02  1.042E-01  1.013E+05  2.979E-07  6.555E-04  5.426E+02  6.895E+02
  9.922E-02  1.105E-01  1.013E+05  8.855E-07 -1.281E-04  4.625E+02  5.023E+02
  9.922E-02  1.168E-01  1.013E+05  9.447E-07  1.474E-05  3.989E+02  4.233E+02
  9.922E-02  1.231E-01  1.013E+05 -8.098E-08  3.851E-05  3.558E+02  3.749E+02
  9.922E-02  1.294E-01  1.013E+05 -5.947E-07  1.469E-05  3.287E+02  3.461E+02
  9.922E-02  1.357E-01  1.013E+05 -5.178E-07  1.040E-05  3.127E+02  3.253E+02
  9.922E-02  1.420E-01  1.013E+05 -6.092E-07  1.247E-05  3.038E+02  3.120E+02
  9.922E-02  1.483E-01  1.013E+05 -9.033E-07  1.049E-05  2.990E+02  3.043E+02
  9.922E-02  1.547E-01  1.013E+05 -9.169E-07 -1.037E-06  2.966E+02  2.992E+02
  9.922E-02  1.610E-01  1.013E+05 -6.407E-07 -3.955E-06  2.953E+02  2.967E+02
  9.922E-02  1.673E-01  1.013E+05 -4.288E-07  3.899E-06  2.946E+02  2.954E+02
  9.922E-02  1.736E-01  1.013E+05 -2.576E-07  6.206E-06  2.943E+02  2.947E+02
  9.922E-02  1.799E-01  1.013E+05 -1.262E-07  4.266E-06  2.941E+02  2.943E+02
  9.922E-02  1.862E-01  1.013E+05 -3.078E-08  3.633E-06  2.939E+02  2.940E+02
  9.922E-02  1.925E-01  1.013E+05  3.617E-08  3.079E-06  2.938E+02  2.939E+02
  9.922E-02  1.988E-01  1.013E+05  8.119E-08  2.678E-06  2.937E+02  2.937E+02
  9.922E-02  2.052E-01  1.013E+05  1.097E-07  2.351E-06  2.936E+02  2.936E+02
  9.922E-02  2.115E-01  1.013E+05  1.258E-07  2.077E-06  2.936E+02  2.936E+02
  9.922E-02  2.178E-01  1.013E+05  1.326E-07  1.842E-06  2.935E+02  2.935E+02
  9.922E-02  2.241E-01  1.013E+05  1.323E-07  1.639E-06  2.934E+02  2.934E+02
  9.922E-02  2.304E-01  1.013E+05  1.261E-07  1.465E-06  2.934E+02  2.934E+02
  9.922E-02  2.367E-01  1.013E+05  1.147E-07  1.313E-06  2.933E+02  2.934E+02
  9.922E-02  2.430E-01  1.013E+05  9.887E-08  1.214E-06  2.933E+02  2.933E+02
  9.922E-02  2.493E-01  1.013E+05  7.151E-08  9.980E-07  2.933E+02  2.933E+02
  9.922E-02  2.557E-01  1.013E+05  7.080E-08  1.677E-06  2.932E+02  2.932E+02
  9.922E-02  2.620E-01  1.013E+05 -1.515E-07 -2.676E-06  2.932E+02  2.932E+02
  9.922E-02  2.683E-01  1.013E+05  9.090E-07 -1.465E-05  2.932E+02  2.932E+02
  9.922E-02  2.746E-01  1.013E+05  2.344E-06 -1.513E-05  2.932E+02  2.932E+02
  9.922E-02  2.809E-01  1.013E+05  8.558E-07 -3.585E-06  2.931E+02  2.931E+02
  9.922E-02  2.872E-01  1.013E+05 -2.278E-07  8.365E-07  2.931E+02  2.931E+02
  9.922E-02  2.935E-01  1.013E+05  2.964E-10  1.429E-07  2.931E+02  2.931E+02
  9.922E-02  2.998E-01  1.013E+05 -7.781E-09  2.769E-07  2.931E+02  2.931E+02
  9.922E-02  3.062E-01  1.013E+05  1.262E-08  2.574E-07  2.931E+02  2.931E+02
  9.922E-02  3.125E-01  1.013E+05  2.070E-08  2.519E-07  2.931E+02  2.931E+02
  9.922E-02  3.188E-01  1.013E+05  2.577E-08  2.382E-07  2.931E+02  2.931E+02
  9.922E-02  3.251E-01  1.013E+05  2.799E-08  2.225E-07  2.931E+02  2.931E+02
  9.922E-02  3.314E-01  1.013E+05  2.849E-08  2.054E-07  2.931E+02  2.931E+02
  9.922E-02  3.377E-01  1.013E+05  2.791E-08  1.880E-07  2.931E+02  2.931E+02