VARIABLES="XP","YP","P","U","V","TS","TF"
ZONE T="Zone 001"I=    82 J=    12 F=POINT
  0.000E+00  0.000E+00  1.019E+05  0.000E+00  0.000E+00  2.931E+02  2.931E+02
  0.000E+00  3.156E-03  1.019E+05  0.000E+00  0.000E+00  2.931E+02  2.931E+02
  0.000E+00  9.469E-03  1.019E+05  0.000E+00  0.000E+00  2.932E+02  2.932E+02
  0.000E+00  1.578E-02  1.019E+05  0.000E+00  0.000E+00  2.934E+02  2.933E+02
  0.000E+00  2.209E-02  1.019E+05  0.000E+00  0.000E+00  2.937E+02  2.935E+02
  0.000E+00  2.841E-02  1.019E+05  0.000E+00  0.000E+00  2.941E+02  2.939E+02
  0.000E+00  3.472E-02  1.019E+05  0.000E+00  0.000E+00  2.948E+02  2.944E+02
  0.000E+00  4.103E-02  1.019E+05  0.000E+00  0.000E+00  2.959E+02  2.953E+02
  0.000E+00  4.734E-02  1.019E+05  0.000E+00  0.000E+00  2.976E+02  2.967E+02
  0.000E+00  5.366E-02  1.018E+05  0.000E+00  0.000E+00  3.003E+02  2.989E+02
  0.000E+00  5.997E-02  1.018E+05  0.000E+00  0.000E+00  3.043E+02  3.022E+02
  0.000E+00  6.628E-02  1.018E+05  0.000E+00  0.000E+00  3.103E+02  3.071E+02
  0.000E+00  7.259E-02  1.018E+05  0.000E+00  0.000E+00  3.191E+02  3.143E+02
  0.000E+00  7.891E-02  1.018E+05  0.000E+00  0.000E+00  3.320E+02  3.249E+02
  0.000E+00  8.522E-02  1.018E+05  0.000E+00  0.000E+00  3.509E+02  3.406E+02
  0.000E+00  9.153E-02  1.018E+05  0.000E+00  0.000E+00  3.796E+02  3.641E+02
  0.000E+00  9.784E-02  1.018E+05  0.000E+00  0.000E+00  4.242E+02  4.002E+02
  0.000E+00  1.042E-01  1.018E+05  0.000E+00  0.000E+00  4.882E+02  4.524E+02
  0.000E+00  1.105E-01  1.018E+05  0.000E+00  0.000E+00  5.083E+02  4.855E+02
  0.000E+00  1.168E-01  1.018E+05  0.000E+00  0.000E+00  5.175E+02  5.044E+02
  0.000E+00  1.231E-01  1.018E+05  0.000E+00  0.000E+00  5.183E+02  5.125E+02
  0.000E+00  1.294E-01  1.018E+05  0.000E+00  0.000E+00  5.117E+02  5.119E+02
  0.000E+00  1.357E-01  1.018E+05  0.000E+00  0.000E+00  4.988E+02  5.040E+02
  0.000E+00  1.420E-01  1.017E+05  0.000E+00  0.000E+00  4.814E+02  4.904E+02
  0.000E+00  1.483E-01  1.017E+05  0.000E+00  0.000E+00  4.611E+02  4.729E+02
  0.000E+00  1.547E-01  1.017E+05  0.000E+00  0.000E+00  4.396E+02  4.530E+02
  0.000E+00  1.610E-01  1.017E+05  0.000E+00  0.000E+00  4.181E+02  4.322E+02
  0.000E+00  1.673E-01  1.017E+05  0.000E+00  0.000E+00  3.978E+02  4.117E+02
  0.000E+00  1.736E-01  1.017E+05  0.000E+00  0.000E+00  3.791E+02  3.923E+02
  0.000E+00  1.799E-01  1.017E+05  0.000E+00  0.000E+00  3.627E+02  3.747E+02
  0.000E+00  1.862E-01  1.017E+05  0.000E+00  0.000E+00  3.486E+02  3.592E+02
  0.000E+00  1.925E-01  1.017E+05  0.000E+00  0.000E+00  3.367E+02  3.458E+02
  0.000E+00  1.988E-01  1.017E+05  0.000E+00  0.000E+00  3.269E+02  3.346E+02
  0.000E+00  2.052E-01  1.017E+05  0.000E+00  0.000E+00  3.191E+02  3.254E+02
  0.000E+00  2.115E-01  1.017E+05  0.000E+00  0.000E+00  3.128E+02  3.179E+02
  0.000E+00  2.178E-01  1.017E+05  0.000E+00  0.000E+00  3.079E+02  3.120E+02
  0.000E+00  2.241E-01  1.017E+05  0.000E+00  0.000E+00  3.042E+02  3.074E+02
  0.000E+00  2.304E-01  1.016E+05  0.000E+00  0.000E+00  3.013E+02  3.038E+02
  0.000E+00  2.367E-01  1.016E+05  0.000E+00  0.000E+00  2.992E+02  3.010E+02
  0.000E+00  2.430E-01  1.016E+05  0.000E+00  0.000E+00  2.976E+02  2.990E+02
  0.000E+00  2.493E-01  1.016E+05  0.000E+00  0.000E+00  2.964E+02  2.974E+02
  0.000E+00  2.557E-01  1.016E+05  0.000E+00  0.000E+00  2.955E+02  2.963E+02
  0.000E+00  2.620E-01  1.016E+05  0.000E+00  0.000E+00  2.948E+02  2.954E+02
  0.000E+00  2.683E-01  1.016E+05  0.000E+00  0.000E+00  2.944E+02  2.948E+02
  0.000E+00  2.746E-01  1.016E+05  0.000E+00  0.000E+00  2.940E+02  2.944E+02
  0.000E+00  2.809E-01  1.016E+05  0.000E+00  0.000E+00  2.938E+02  2.940E+02
  0.000E+00  2.872E-01  1.016E+05  0.000E+00  0.000E+00  2.936E+02  2.938E+02
  0.000E+00  2.935E-01  1.016E+05  0.000E+00  0.000E+00  2.935E+02  2.936E+02
  0.000E+00  2.998E-01  1.016E+05  0.000E+00  0.000E+00  2.934E+02  2.935E+02
  0.000E+00  3.062E-01  1.016E+05  0.000E+00  0.000E+00  2.933E+02  2.934E+02
  0.000E+00  3.125E-01  1.015E+05  0.000E+00  0.000E+00  2.933E+02  2.933E+02
  0.000E+00  3.188E-01  1.015E+05  0.000E+00  0.000E+00  2.932E+02  2.932E+02
  0.000E+00  3.251E-01  1.015E+05  0.000E+00  0.000E+00  2.932E+02  2.932E+02
  0.000E+00  3.314E-01  1.015E+05  0.000E+00  0.000E+00  2.932E+02  2.932E+02
  0.000E+00  3.377E-01  1.015E+05  0.000E+00  0.000E+00  2.931E+02  2.931E+02
  0.000E+00  3.440E-01  1.015E+05  0.000E+00  0.000E+00  2.931E+02  2.931E+02
  0.000E+00  3.503E-01  1.015E+05  0.000E+00  0.000E+00  2.931E+02  2.931E+02
  0.000E+00  3.567E-01  1.015E+05  0.000E+00  0.000E+00  2.931E+02  2.931E+02
  0.000E+00  3.630E-01  1.015E+05  0.000E+00  0.000E+00  2.931E+02  2.931E+02
  0.000E+00  3.693E-01  1.015E+05  0.000E+00  0.000E+00  2.931E+02  2.931E+02
  0.000E+00  3.756E-01  1.015E+05  0.000E+00  0.000E+00  2.931E+02  2.931E+02
  0.000E+00  3.819E-01  1.015E+05  0.000E+00  0.000E+00  2.931E+02  2.931E+02
  0.000E+00  3.882E-01  1.015E+05  0.000E+00  0.000E+00  2.930E+02  2.931E+02
  0.000E+00  3.945E-01  1.015E+05  0.000E+00  0.000E+00  2.930E+02  2.930E+02
  0.000E+00  4.008E-01  1.014E+05  0.000E+00  0.000E+00  2.930E+02  2.930E+02
  0.000E+00  4.072E-01  1.014E+05  0.000E+00  0.000E+00  2.930E+02  2.930E+02
  0.000E+00  4.135E-01  1.014E+05  0.000E+00  0.000E+00  2.930E+02  2.930E+02
  0.000E+00  4.198E-01  1.014E+05  0.000E+00  0.000E+00  2.930E+02  2.930E+02
  0.000E+00  4.261E-01  1.014E+05  0.000E+00  0.000E+00  2.930E+02  2.930E+02
  0.000E+00  4.324E-01  1.014E+05  0.000E+00  0.000E+00  2.930E+02  2.930E+02
  0.000E+00  4.387E-01  1.014E+05  0.000E+00  0.000E+00  2.930E+02  2.930E+02
  0.000E+00  4.450E-01  1.014E+05  0.000E+00  0.000E+00  2.930E+02  2.930E+02
  0.000E+00  4.513E-01  1.014E+05  0.000E+00  0.000E+00  2.930E+02  2.930E+02
  0.000E+00  4.577E-01  1.014E+05  0.000E+00  0.000E+00  2.930E+02  2.930E+02
  0.000E+00  4.640E-01  1.014E+05  0.000E+00  0.000E+00  2.930E+02  2.930E+02
  0.000E+00  4.703E-01  1.014E+05  0.000E+00  0.000E+00  2.930E+02  2.930E+02
  0.000E+00  4.766E-01  1.014E+05  0.000E+00  0.000E+00  2.930E+02  2.930E+02
  0.000E+00  4.829E-01  1.014E+05  0.000E+00  0.000E+00  2.930E+02  2.930E+02
  0.000E+00  4.892E-01  1.013E+05  0.000E+00  0.000E+00  2.930E+02  2.930E+02
  0.000E+00  4.955E-01  1.013E+05  0.000E+00  0.000E+00  2.930E+02  2.930E+02
  0.000E+00  5.018E-01  1.013E+05  0.000E+00  0.000E+00  2.930E+02  2.930E+02
  0.000E+00  5.050E-01  1.013E+05  0.000E+00  0.000E+00  2.930E+02  2.930E+02
  1.417E-02  0.000E+00  1.019E+05  8.421E-08  6.500E-02  2.930E+02  2.931E+02
  1.417E-02  3.156E-03  1.019E+05  8.421E-08  6.493E-02  2.931E+02  2.931E+02
  1.417E-02  9.469E-03  1.019E+05  6.403E-08  6.497E-02  2.932E+02  2.932E+02
  1.417E-02  1.578E-02  1.019E+05  5.152E-08  6.498E-02  2.934E+02  2.933E+02
  1.417E-02  2.209E-02  1.019E+05  4.128E-08  6.498E-02  2.937E+02  2.935E+02
  1.417E-02  2.841E-02  1.019E+05  3.336E-08  6.499E-02  2.941E+02  2.939E+02
  1.417E-02  3.472E-02  1.019E+05  2.712E-08  6.498E-02  2.948E+02  2.944E+02
  1.417E-02  4.103E-02  1.019E+05  2.213E-08  6.498E-02  2.959E+02  2.953E+02
  1.417E-02  4.734E-02  1.019E+05  1.811E-08  6.498E-02  2.976E+02  2.967E+02
  1.417E-02  5.366E-02  1.018E+05  1.479E-08  6.498E-02  3.003E+02  2.989E+02
  1.417E-02  5.997E-02  1.018E+05  1.194E-08  6.498E-02  3.043E+02  3.022E+02
  1.417E-02  6.628E-02  1.018E+05  9.447E-09  6.497E-02  3.103E+02  3.071E+02
  1.417E-02  7.259E-02  1.018E+05  7.289E-09  6.496E-02  3.191E+02  3.143E+02
  1.417E-02  7.891E-02  1.018E+05  5.520E-09  6.495E-02  3.320E+02  3.249E+02
  1.417E-02  8.522E-02  1.018E+05  4.255E-09  6.494E-02  3.509E+02  3.406E+02
  1.417E-02  9.153E-02  1.018E+05  3.551E-09  6.493E-02  3.796E+02  3.641E+02
  1.417E-02  9.784E-02  1.018E+05  3.443E-09  6.487E-02  4.242E+02  4.002E+02
  1.417E-02  1.042E-01  1.018E+05  3.951E-09  6.504E-02  4.882E+02  4.524E+02
  1.417E-02  1.105E-01  1.018E+05  4.944E-09  6.495E-02  5.083E+02  4.855E+02
  1.417E-02  1.168E-01  1.018E+05  6.326E-09  6.496E-02  5.175E+02  5.044E+02
  1.417E-02  1.231E-01  1.018E+05  8.022E-09  6.498E-02  5.183E+02  5.125E+02
  1.417E-02  1.294E-01  1.018E+05  9.852E-09  6.499E-02  5.117E+02  5.119E+02
  1.417E-02  1.357E-01  1.018E+05  1.154E-08  6.500E-02  4.988E+02  5.040E+02
  1.417E-02  1.420E-01  1.017E+05  1.282E-08  6.503E-02  4.814E+02  4.904E+02
  1.417E-02  1.483E-01  1.017E+05  1.347E-08  6.504E-02  4.611E+02  4.729E+02
  1.417E-02  1.547E-01  1.017E+05  1.336E-08  6.505E-02  4.396E+02  4.530E+02
  1.417E-02  1.610E-01  1.017E+05  1.248E-08  6.505E-02  4.181E+02  4.322E+02
  1.417E-02  1.673E-01  1.017E+05  1.092E-08  6.504E-02  3.978E+02  4.117E+02
  1.417E-02  1.736E-01  1.017E+05  8.820E-09  6.504E-02  3.791E+02  3.923E+02
  1.417E-02  1.799E-01  1.017E+05  6.413E-09  6.503E-02  3.627E+02  3.747E+02
  1.417E-02  1.862E-01  1.017E+05  3.888E-09  6.502E-02  3.486E+02  3.592E+02
  1.417E-02  1.925E-01  1.017E+05  1.423E-09  6.501E-02  3.367E+02  3.458E+02
  1.417E-02  1.988E-01  1.017E+05 -8.259E-10  6.500E-02  3.269E+02  3.346E+02
  1.417E-02  2.052E-01  1.017E+05 -2.753E-09  6.500E-02  3.191E+02  3.254E+02
  1.417E-02  2.115E-01  1.017E+05 -4.301E-09  6.501E-02  3.128E+02  3.179E+02
  1.417E-02  2.178E-01  1.017E+05 -5.458E-09  6.501E-02  3.079E+02  3.120E+02
  1.417E-02  2.241E-01  1.017E+05 -6.223E-09  6.500E-02  3.042E+02  3.074E+02
  1.417E-02  2.304E-01  1.016E+05 -6.651E-09  6.499E-02  3.013E+02  3.038E+02
  1.417E-02  2.367E-01  1.016E+05 -6.794E-09  6.499E-02  2.992E+02  3.010E+02
  1.417E-02  2.430E-01  1.016E+05 -6.682E-09  6.498E-02  2.976E+02  2.990E+02
  1.417E-02  2.493E-01  1.016E+05 -6.400E-09  6.498E-02  2.964E+02  2.974E+02
  1.417E-02  2.557E-01  1.016E+05 -6.006E-09  6.499E-02  2.955E+02  2.963E+02
  1.417E-02  2.620E-01  1.016E+05 -5.529E-09  6.499E-02  2.948E+02  2.954E+02
  1.417E-02  2.683E-01  1.016E+05 -5.013E-09  6.499E-02  2.944E+02  2.948E+02
  1.417E-02  2.746E-01  1.016E+05 -4.488E-09  6.499E-02  2.940E+02  2.944E+02
  1.417E-02  2.809E-01  1.016E+05 -3.984E-09  6.498E-02  2.938E+02  2.940E+02
  1.417E-02  2.872E-01  1.016E+05 -3.497E-09  6.498E-02  2.936E+02  2.938E+02
  1.417E-02  2.935E-01  1.016E+05 -3.042E-09  6.498E-02  2.935E+02  2.936E+02
  1.417E-02  2.998E-01  1.016E+05 -2.631E-09  6.498E-02  2.934E+02  2.935E+02
  1.417E-02  3.062E-01  1.016E+05 -2.268E-09  6.498E-02  2.933E+02  2.934E+02
  1.417E-02  3.125E-01  1.015E+05 -1.955E-09  6.498E-02  2.933E+02  2.933E+02
  1.417E-02  3.188E-01  1.015E+05 -1.696E-09  6.498E-02  2.932E+02  2.932E+02
  1.417E-02  3.251E-01  1.015E+05 -1.470E-09  6.498E-02  2.932E+02  2.932E+02
  1.417E-02  3.314E-01  1.015E+05 -1.268E-09  6.498E-02  2.932E+02  2.932E+02
  1.417E-02  3.377E-01  1.015E+05 -1.138E-09  6.498E-02  2.931E+02  2.931E+02
  1.417E-02  3.440E-01  1.015E+05 -1.025E-09  6.498E-02  2.931E+02  2.931E+02
  1.417E-02  3.503E-01  1.015E+05 -9.341E-10  6.498E-02  2.931E+02  2.931E+02
  1.417E-02  3.567E-01  1.015E+05 -8.591E-10  6.498E-02  2.931E+02  2.931E+02
  1.417E-02  3.630E-01  1.015E+05 -7.908E-10  6.498E-02  2.931E+02  2.931E+02
  1.417E-02  3.693E-01  1.015E+05 -7.511E-10  6.498E-02  2.931E+02  2.931E+02
  1.417E-02  3.756E-01  1.015E+05 -7.111E-10  6.498E-02  2.931E+02  2.931E+02
  1.417E-02  3.819E-01  1.015E+05 -6.730E-10  6.498E-02  2.931E+02  2.931E+02
  1.417E-02  3.882E-01  1.015E+05 -6.343E-10  6.498E-02  2.930E+02  2.931E+02
  1.417E-02  3.945E-01  1.015E+05 -5.888E-10  6.498E-02  2.930E+02  2.930E+02
  1.417E-02  4.008E-01  1.014E+05 -5.569E-10  6.498E-02  2.930E+02  2.930E+02
  1.417E-02  4.072E-01  1.014E+05 -5.388E-10  6.498E-02  2.930E+02  2.930E+02
  1.417E-02  4.135E-01  1.014E+05 -5.137E-10  6.498E-02  2.930E+02  2.930E+02
  1.417E-02  4.198E-01  1.014E+05 -4.920E-10  6.498E-02  2.930E+02  2.930E+02
  1.417E-02  4.261E-01  1.014E+05 -4.485E-10  6.498E-02  2.930E+02  2.930E+02
  1.417E-02  4.324E-01  1.014E+05 -4.091E-10  6.498E-02  2.930E+02  2.930E+02
  1.417E-02  4.387E-01  1.014E+05 -3.745E-10  6.498E-02  2.930E+02  2.930E+02
  1.417E-02  4.450E-01  1.014E+05 -3.141E-10  6.498E-02  2.930E+02  2.930E+02
  1.417E-02  4.513E-01  1.014E+05 -2.753E-10  6.498E-02  2.930E+02  2.930E+02
  1.417E-02  4.577E-01  1.014E+05 -2.534E-10  6.498E-02  2.930E+02  2.930E+02
  1.417E-02  4.640E-01  1.014E+05 -2.279E-10  6.498E-02  2.930E+02  2.930E+02
  1.417E-02  4.703E-01  1.014E+05 -2.016E-10  6.498E-02  2.930E+02  2.930E+02
  1.417E-02  4.766E-01  1.014E+05 -1.741E-10  6.498E-02  2.930E+02  2.930E+02
  1.417E-02  4.829E-01  1.014E+05 -1.445E-10  6.498E-02  2.930E+02  2.930E+02
  1.417E-02  4.892E-01  1.013E+05 -1.143E-10  6.499E-02  2.930E+02  2.930E+02
  1.417E-02  4.955E-01  1.013E+05 -8.061E-11  6.499E-02  2.930E+02  2.930E+02
  1.417E-02  5.018E-01  1.013E+05 -6.149E-11  6.500E-02  2.930E+02  2.930E+02
  1.417E-02  5.050E-01  1.013E+05 -6.149E-11  6.500E-02  2.930E+02  2.930E+02
  4.252E-02  0.000E+00  1.019E+05  1.082E-07  6.500E-02  2.930E+02  2.931E+02
  4.252E-02  3.156E-03  1.019E+05  1.082E-07  6.493E-02  2.931E+02  2.931E+02
  4.252E-02  9.469E-03  1.019E+05  8.700E-08  6.497E-02  2.932E+02  2.932E+02
  4.252E-02  1.578E-02  1.019E+05  7.299E-08  6.498E-02  2.934E+02  2.933E+02
  4.252E-02  2.209E-02  1.019E+05  6.103E-08  6.499E-02  2.937E+02  2.935E+02
  4.252E-02  2.841E-02  1.019E+05  5.132E-08  6.499E-02  2.941E+02  2.939E+02
  4.252E-02  3.472E-02  1.019E+05  4.332E-08  6.498E-02  2.948E+02  2.944E+02
  4.252E-02  4.103E-02  1.019E+05  3.672E-08  6.498E-02  2.959E+02  2.953E+02
  4.252E-02  4.734E-02  1.019E+05  3.125E-08  6.498E-02  2.977E+02  2.967E+02
  4.252E-02  5.366E-02  1.018E+05  2.672E-08  6.498E-02  3.003E+02  2.989E+02
  4.252E-02  5.997E-02  1.018E+05  2.294E-08  6.498E-02  3.043E+02  3.022E+02
  4.252E-02  6.628E-02  1.018E+05  1.981E-08  6.497E-02  3.103E+02  3.071E+02
  4.252E-02  7.259E-02  1.018E+05  1.718E-08  6.496E-02  3.191E+02  3.143E+02
  4.252E-02  7.891E-02  1.018E+05  1.501E-08  6.495E-02  3.320E+02  3.249E+02
  4.252E-02  8.522E-02  1.018E+05  1.336E-08  6.494E-02  3.509E+02  3.406E+02
  4.252E-02  9.153E-02  1.018E+05  1.234E-08  6.493E-02  3.795E+02  3.641E+02
  4.252E-02  9.784E-02  1.018E+05  1.210E-08  6.487E-02  4.242E+02  4.002E+02
  4.252E-02  1.042E-01  1.018E+05  1.266E-08  6.504E-02  4.882E+02  4.524E+02
  4.252E-02  1.105E-01  1.018E+05  1.393E-08  6.495E-02  5.083E+02  4.855E+02
  4.252E-02  1.168E-01  1.018E+05  1.572E-08  6.496E-02  5.175E+02  5.044E+02
  4.252E-02  1.231E-01  1.018E+05  1.789E-08  6.498E-02  5.183E+02  5.125E+02
  4.252E-02  1.294E-01  1.018E+05  2.010E-08  6.499E-02  5.116E+02  5.119E+02
  4.252E-02  1.357E-01  1.018E+05  2.186E-08  6.500E-02  4.988E+02  5.039E+02
  4.252E-02  1.420E-01  1.017E+05  2.275E-08  6.503E-02  4.814E+02  4.904E+02
  4.252E-02  1.483E-01  1.017E+05  2.248E-08  6.504E-02  4.611E+02  4.729E+02
  4.252E-02  1.547E-01  1.017E+05  2.097E-08  6.505E-02  4.396E+02  4.530E+02
  4.252E-02  1.610E-01  1.017E+05  1.832E-08  6.505E-02  4.181E+02  4.322E+02
  4.252E-02  1.673E-01  1.017E+05  1.477E-08  6.504E-02  3.978E+02  4.117E+02
  4.252E-02  1.736E-01  1.017E+05  1.058E-08  6.504E-02  3.792E+02  3.923E+02
  4.252E-02  1.799E-01  1.017E+05  6.171E-09  6.503E-02  3.627E+02  3.747E+02
  4.252E-02  1.862E-01  1.017E+05  1.862E-09  6.503E-02  3.486E+02  3.592E+02
  4.252E-02  1.925E-01  1.017E+05 -2.060E-09  6.501E-02  3.367E+02  3.458E+02
  4.252E-02  1.988E-01  1.017E+05 -5.394E-09  6.500E-02  3.270E+02  3.346E+02
  4.252E-02  2.052E-01  1.017E+05 -8.066E-09  6.500E-02  3.191E+02  3.254E+02
  4.252E-02  2.115E-01  1.017E+05 -1.002E-08  6.501E-02  3.128E+02  3.179E+02
  4.252E-02  2.178E-01  1.017E+05 -1.129E-08  6.501E-02  3.080E+02  3.120E+02
  4.252E-02  2.241E-01  1.017E+05 -1.191E-08  6.500E-02  3.042E+02  3.074E+02
  4.252E-02  2.304E-01  1.016E+05 -1.201E-08  6.499E-02  3.013E+02  3.038E+02
  4.252E-02  2.367E-01  1.016E+05 -1.170E-08  6.499E-02  2.992E+02  3.011E+02
  4.252E-02  2.430E-01  1.016E+05 -1.103E-08  6.498E-02  2.976E+02  2.990E+02
  4.252E-02  2.493E-01  1.016E+05 -1.019E-08  6.498E-02  2.964E+02  2.974E+02
  4.252E-02  2.557E-01  1.016E+05 -9.240E-09  6.499E-02  2.955E+02  2.963E+02
  4.252E-02  2.620E-01  1.016E+05 -8.222E-09  6.499E-02  2.949E+02  2.954E+02
  4.252E-02  2.683E-01  1.016E+05 -7.223E-09  6.499E-02  2.944E+02  2.948E+02
  4.252E-02  2.746E-01  1.016E+05 -6.268E-09  6.499E-02  2.940E+02  2.944E+02
  4.252E-02  2.809E-01  1.016E+05 -5.384E-09  6.499E-02  2.938E+02  2.940E+02
  4.252E-02  2.872E-01  1.016E+05 -4.573E-09  6.498E-02  2.936E+02  2.938E+02
  4.252E-02  2.935E-01  1.016E+05 -3.825E-09  6.498E-02  2.935E+02  2.936E+02
  4.252E-02  2.998E-01  1.016E+05 -3.175E-09  6.498E-02  2.934E+02  2.935E+02
  4.252E-02  3.062E-01  1.016E+05 -2.628E-09  6.498E-02  2.933E+02  2.934E+02
  4.252E-02  3.125E-01  1.015E+05 -2.169E-09  6.498E-02  2.933E+02  2.933E+02
  4.252E-02  3.188E-01  1.015E+05 -1.779E-09  6.498E-02  2.932E+02  2.933E+02
  4.252E-02  3.251E-01  1.015E+05 -1.459E-09  6.498E-02  2.932E+02  2.932E+02
  4.252E-02  3.314E-01  1.015E+05 -1.200E-09  6.498E-02  2.932E+02  2.932E+02
  4.252E-02  3.377E-01  1.015E+05 -1.017E-09  6.498E-02  2.931E+02  2.932E+02
  4.252E-02  3.440E-01  1.015E+05 -8.961E-10  6.498E-02  2.931E+02  2.931E+02
  4.252E-02  3.503E-01  1.015E+05 -8.316E-10  6.498E-02  2.931E+02  2.931E+02
  4.252E-02  3.567E-01  1.015E+05 -7.936E-10  6.498E-02  2.931E+02  2.931E+02
  4.252E-02  3.630E-01  1.015E+05 -7.712E-10  6.498E-02  2.931E+02  2.931E+02
  4.252E-02  3.693E-01  1.015E+05 -7.797E-10  6.498E-02  2.931E+02  2.931E+02
  4.252E-02  3.756E-01  1.015E+05 -7.870E-10  6.498E-02  2.931E+02  2.931E+02
  4.252E-02  3.819E-01  1.015E+05 -7.933E-10  6.498E-02  2.931E+02  2.931E+02
  4.252E-02  3.882E-01  1.015E+05 -7.925E-10  6.498E-02  2.930E+02  2.931E+02
  4.252E-02  3.945E-01  1.015E+05 -7.770E-10  6.498E-02  2.930E+02  2.930E+02
  4.252E-02  4.008E-01  1.014E+05 -7.672E-10  6.498E-02  2.930E+02  2.930E+02
  4.252E-02  4.072E-01  1.014E+05 -7.640E-10  6.498E-02  2.930E+02  2.930E+02
  4.252E-02  4.135E-01  1.014E+05 -7.465E-10  6.498E-02  2.930E+02  2.930E+02
  4.252E-02  4.198E-01  1.014E+05 -7.257E-10  6.498E-02  2.930E+02  2.930E+02
  4.252E-02  4.261E-01  1.014E+05 -6.775E-10  6.498E-02  2.930E+02  2.930E+02
  4.252E-02  4.324E-01  1.014E+05 -6.299E-10  6.498E-02  2.930E+02  2.930E+02
  4.252E-02  4.387E-01  1.014E+05 -5.848E-10  6.498E-02  2.930E+02  2.930E+02
  4.252E-02  4.450E-01  1.014E+05 -5.123E-10  6.498E-02  2.930E+02  2.930E+02
  4.252E-02  4.513E-01  1.014E+05 -4.604E-10  6.498E-02  2.930E+02  2.930E+02
  4.252E-02  4.577E-01  1.014E+05 -4.273E-10  6.498E-02  2.930E+02  2.930E+02
  4.252E-02  4.640E-01  1.014E+05 -3.922E-10  6.498E-02  2.930E+02  2.930E+02
  4.252E-02  4.703E-01  1.014E+05 -3.571E-10  6.498E-02  2.930E+02  2.930E+02
  4.252E-02  4.766E-01  1.014E+05 -3.254E-10  6.498E-02  2.930E+02  2.930E+02
  4.252E-02  4.829E-01  1.014E+05 -2.692E-10  6.498E-02  2.930E+02  2.930E+02
  4.252E-02  4.892E-01  1.013E+05 -2.082E-10  6.499E-02  2.930E+02  2.930E+02
  4.252E-02  4.955E-01  1.013E+05 -1.743E-10  6.500E-02  2.930E+02  2.930E+02
  4.252E-02  5.018E-01  1.013E+05 -1.407E-10  6.500E-02  2.930E+02  2.930E+02
  4.252E-02  5.050E-01  1.013E+05 -1.407E-10  6.500E-02  2.930E+02  2.930E+02
  7.087E-02  0.000E+00  1.019E+05  3.886E-08  6.500E-02  2.930E+02  2.931E+02
  7.087E-02  3.156E-03  1.019E+05  3.886E-08  6.493E-02  2.931E+02  2.931E+02
  7.087E-02  9.469E-03  1.019E+05  3.746E-08  6.497E-02  2.932E+02  2.932E+02
  7.087E-02  1.578E-02  1.019E+05  3.544E-08  6.498E-02  2.934E+02  2.933E+02
  7.087E-02  2.209E-02  1.019E+05  3.302E-08  6.498E-02  2.937E+02  2.935E+02
  7.087E-02  2.841E-02  1.019E+05  3.040E-08  6.499E-02  2.941E+02  2.939E+02
  7.087E-02  3.472E-02  1.019E+05  2.769E-08  6.498E-02  2.948E+02  2.944E+02
  7.087E-02  4.103E-02  1.019E+05  2.501E-08  6.498E-02  2.959E+02  2.953E+02
  7.087E-02  4.734E-02  1.019E+05  2.240E-08  6.498E-02  2.976E+02  2.967E+02
  7.087E-02  5.366E-02  1.018E+05  1.995E-08  6.498E-02  3.003E+02  2.989E+02
  7.087E-02  5.997E-02  1.018E+05  1.772E-08  6.498E-02  3.043E+02  3.022E+02
  7.087E-02  6.628E-02  1.018E+05  1.580E-08  6.497E-02  3.103E+02  3.071E+02
  7.087E-02  7.259E-02  1.018E+05  1.424E-08  6.496E-02  3.191E+02  3.143E+02
  7.087E-02  7.891E-02  1.018E+05  1.308E-08  6.495E-02  3.320E+02  3.249E+02
  7.087E-02  8.522E-02  1.018E+05  1.227E-08  6.494E-02  3.509E+02  3.406E+02
  7.087E-02  9.153E-02  1.018E+05  1.176E-08  6.493E-02  3.795E+02  3.641E+02
  7.087E-02  9.784E-02  1.018E+05  1.148E-08  6.487E-02  4.242E+02  4.002E+02
  7.087E-02  1.042E-01  1.018E+05  1.122E-08  6.504E-02  4.882E+02  4.524E+02
  7.087E-02  1.105E-01  1.018E+05  1.093E-08  6.495E-02  5.083E+02  4.855E+02
  7.087E-02  1.168E-01  1.018E+05  1.051E-08  6.496E-02  5.175E+02  5.044E+02
  7.087E-02  1.231E-01  1.018E+05  9.868E-09  6.498E-02  5.183E+02  5.125E+02
  7.087E-02  1.294E-01  1.018E+05  8.961E-09  6.499E-02  5.116E+02  5.119E+02
  7.087E-02  1.357E-01  1.018E+05  7.711E-09  6.500E-02  4.988E+02  5.040E+02
  7.087E-02  1.420E-01  1.017E+05  6.129E-09  6.503E-02  4.814E+02  4.904E+02
  7.087E-02  1.483E-01  1.017E+05  4.314E-09  6.504E-02  4.611E+02  4.729E+02
  7.087E-02  1.547E-01  1.017E+05  2.448E-09  6.505E-02  4.396E+02  4.530E+02
  7.087E-02  1.610E-01  1.017E+05  6.633E-10  6.505E-02  4.182E+02  4.323E+02
  7.087E-02  1.673E-01  1.017E+05 -9.091E-10  6.504E-02  3.978E+02  4.117E+02
  7.087E-02  1.736E-01  1.017E+05 -2.238E-09  6.504E-02  3.792E+02  3.924E+02
  7.087E-02  1.799E-01  1.017E+05 -3.268E-09  6.503E-02  3.627E+02  3.747E+02
  7.087E-02  1.862E-01  1.017E+05 -3.980E-09  6.503E-02  3.486E+02  3.592E+02
  7.087E-02  1.925E-01  1.017E+05 -4.355E-09  6.501E-02  3.367E+02  3.458E+02
  7.087E-02  1.988E-01  1.017E+05 -4.397E-09  6.500E-02  3.270E+02  3.346E+02
  7.087E-02  2.052E-01  1.017E+05 -4.146E-09  6.500E-02  3.191E+02  3.254E+02
  7.087E-02  2.115E-01  1.017E+05 -3.636E-09  6.501E-02  3.129E+02  3.180E+02
  7.087E-02  2.178E-01  1.017E+05 -2.924E-09  6.501E-02  3.080E+02  3.120E+02
  7.087E-02  2.241E-01  1.017E+05 -2.040E-09  6.500E-02  3.042E+02  3.074E+02
  7.087E-02  2.304E-01  1.016E+05 -1.070E-09  6.499E-02  3.014E+02  3.038E+02
  7.087E-02  2.367E-01  1.016E+05 -4.991E-11  6.499E-02  2.992E+02  3.011E+02
  7.087E-02  2.430E-01  1.016E+05  9.779E-10  6.498E-02  2.976E+02  2.990E+02
  7.087E-02  2.493E-01  1.016E+05  1.904E-09  6.498E-02  2.964E+02  2.974E+02
  7.087E-02  2.557E-01  1.016E+05  2.576E-09  6.499E-02  2.955E+02  2.963E+02
  7.087E-02  2.620E-01  1.016E+05  2.889E-09  6.499E-02  2.949E+02  2.954E+02
  7.087E-02  2.683E-01  1.016E+05  2.949E-09  6.499E-02  2.944E+02  2.948E+02
  7.087E-02  2.746E-01  1.016E+05  2.902E-09  6.499E-02  2.940E+02  2.944E+02
  7.087E-02  2.809E-01  1.016E+05  2.813E-09  6.499E-02  2.938E+02  2.940E+02
  7.087E-02  2.872E-01  1.016E+05  2.690E-09  6.498E-02  2.936E+02  2.938E+02
  7.087E-02  2.935E-01  1.016E+05  2.567E-09  6.498E-02  2.935E+02  2.936E+02
  7.087E-02  2.998E-01  1.016E+05  2.444E-09  6.498E-02  2.934E+02  2.935E+02
  7.087E-02  3.062E-01  1.016E+05  2.322E-09  6.498E-02  2.933E+02  2.934E+02
  7.087E-02  3.125E-01  1.015E+05  2.196E-09  6.498E-02  2.933E+02  2.933E+02
  7.087E-02  3.188E-01  1.015E+05  2.070E-09  6.498E-02  2.932E+02  2.933E+02
  7.087E-02  3.251E-01  1.015E+05  1.924E-09  6.498E-02  2.932E+02  2.932E+02
  7.087E-02  3.314E-01  1.015E+05  1.753E-09  6.498E-02  2.932E+02  2.932E+02
  7.087E-02  3.377E-01  1.015E+05  1.585E-09  6.498E-02  2.931E+02  2.932E+02
  7.087E-02  3.440E-01  1.015E+05  1.390E-09  6.498E-02  2.931E+02  2.931E+02
  7.087E-02  3.503E-01  1.015E+05  1.204E-09  6.498E-02  2.931E+02  2.931E+02
  7.087E-02  3.567E-01  1.015E+05  1.008E-09  6.498E-02  2.931E+02  2.931E+02
  7.087E-02  3.630E-01  1.015E+05  7.817E-10  6.498E-02  2.931E+02  2.931E+02
  7.087E-02  3.693E-01  1.015E+05  5.800E-10  6.498E-02  2.931E+02  2.931E+02
  7.087E-02  3.756E-01  1.015E+05  4.057E-10  6.498E-02  2.931E+02  2.931E+02
  7.087E-02  3.819E-01  1.015E+05  2.425E-10  6.498E-02  2.931E+02  2.931E+02
  7.087E-02  3.882E-01  1.015E+05  9.871E-11  6.498E-02  2.930E+02  2.931E+02
  7.087E-02  3.945E-01  1.015E+05 -2.388E-11  6.498E-02  2.930E+02  2.930E+02
  7.087E-02  4.008E-01  1.014E+05 -1.248E-10  6.498E-02  2.930E+02  2.930E+02
  7.087E-02  4.072E-01  1.014E+05 -2.045E-10  6.498E-02  2.930E+02  2.930E+02
  7.087E-02  4.135E-01  1.014E+05 -2.641E-10  6.498E-02  2.930E+02  2.930E+02
  7.087E-02  4.198E-01  1.014E+05 -2.996E-10  6.498E-02  2.930E+02  2.930E+02
  7.087E-02  4.261E-01  1.014E+05 -3.388E-10  6.498E-02  2.930E+02  2.930E+02
  7.087E-02  4.324E-01  1.014E+05 -3.638E-10  6.498E-02  2.930E+02  2.930E+02
  7.087E-02  4.387E-01  1.014E+05 -3.573E-10  6.498E-02  2.930E+02  2.930E+02
  7.087E-02  4.450E-01  1.014E+05 -3.473E-10  6.498E-02  2.930E+02  2.930E+02
  7.087E-02  4.513E-01  1.014E+05 -3.312E-10  6.498E-02  2.930E+02  2.930E+02
  7.087E-02  4.577E-01  1.014E+05 -3.134E-10  6.498E-02  2.930E+02  2.930E+02
  7.087E-02  4.640E-01  1.014E+05 -2.950E-10  6.498E-02  2.930E+02  2.930E+02
  7.087E-02  4.703E-01  1.014E+05 -2.752E-10  6.498E-02  2.930E+02  2.930E+02
  7.087E-02  4.766E-01  1.014E+05 -2.578E-10  6.498E-02  2.930E+02  2.930E+02
  7.087E-02  4.829E-01  1.014E+05 -2.137E-10  6.498E-02  2.930E+02  2.930E+02
  7.087E-02  4.892E-01  1.013E+05 -1.628E-10  6.499E-02  2.930E+02  2.930E+02
  7.087E-02  4.955E-01  1.013E+05 -1.425E-10  6.500E-02  2.930E+02  2.930E+02
  7.087E-02  5.018E-01  1.013E+05 -1.187E-10  6.500E-02  2.930E+02  2.930E+02
  7.087E-02  5.050E-01  1.013E+05 -1.187E-10  6.500E-02  2.930E+02  2.930E+02
  9.922E-02  0.000E+00  1.019E+05  2.134E-08  6.500E-02  2.930E+02  2.931E+02
  9.922E-02  3.156E-03  1.019E+05  2.134E-08  6.493E-02  2.931E+02  2.931E+02
  9.922E-02  9.469E-03  1.019E+05  2.079E-08  6.497E-02  2.932E+02  2.932E+02
  9.922E-02  1.578E-02  1.019E+05  2.020E-08  6.498E-02  2.934E+02  2.933E+02
  9.922E-02  2.209E-02  1.019E+05  1.967E-08  6.499E-02  2.937E+02  2.935E+02
  9.922E-02  2.841E-02  1.019E+05  1.897E-08  6.499E-02  2.941E+02  2.939E+02
  9.922E-02  3.472E-02  1.019E+05  1.802E-08  6.498E-02  2.948E+02  2.944E+02
  9.922E-02  4.103E-02  1.019E+05  1.691E-08  6.498E-02  2.959E+02  2.953E+02
  9.922E-02  4.734E-02  1.019E+05  1.557E-08  6.498E-02  2.977E+02  2.967E+02
  9.922E-02  5.366E-02  1.018E+05  1.396E-08  6.498E-02  3.003E+02  2.989E+02
  9.922E-02  5.997E-02  1.018E+05  1.207E-08  6.498E-02  3.043E+02  3.022E+02
  9.922E-02  6.628E-02  1.018E+05  9.948E-09  6.497E-02  3.103E+02  3.071E+02
  9.922E-02  7.259E-02  1.018E+05  7.727E-09  6.496E-02  3.191E+02  3.143E+02
  9.922E-02  7.891E-02  1.018E+05  5.658E-09  6.495E-02  3.320E+02  3.249E+02
  9.922E-02  8.522E-02  1.018E+05  3.902E-09  6.494E-02  3.509E+02  3.406E+02
  9.922E-02  9.153E-02  1.018E+05  2.509E-09  6.493E-02  3.795E+02  3.641E+02
  9.922E-02  9.784E-02  1.018E+05  1.406E-09  6.487E-02  4.242E+02  4.002E+02
  9.922E-02  1.042E-01  1.018E+05  3.326E-10  6.504E-02  4.882E+02  4.524E+02
  9.922E-02  1.105E-01  1.018E+05 -8.866E-10  6.495E-02  5.083E+02  4.855E+02
  9.922E-02  1.168E-01  1.018E+05 -2.453E-09  6.496E-02  5.175E+02  5.044E+02
  9.922E-02  1.231E-01  1.018E+05 -4.470E-09  6.498E-02  5.183E+02  5.125E+02
  9.922E-02  1.294E-01  1.018E+05 -6.809E-09  6.499E-02  5.117E+02  5.119E+02
  9.922E-02  1.357E-01  1.018E+05 -9.215E-09  6.500E-02  4.988E+02  5.040E+02
  9.922E-02  1.420E-01  1.017E+05 -1.129E-08  6.503E-02  4.814E+02  4.904E+02
  9.922E-02  1.483E-01  1.017E+05 -1.269E-08  6.504E-02  4.611E+02  4.729E+02
  9.922E-02  1.547E-01  1.017E+05 -1.323E-08  6.505E-02  4.396E+02  4.530E+02
  9.922E-02  1.610E-01  1.017E+05 -1.285E-08  6.505E-02  4.182E+02  4.322E+02
  9.922E-02  1.673E-01  1.017E+05 -1.168E-08  6.504E-02  3.978E+02  4.117E+02
  9.922E-02  1.736E-01  1.017E+05 -9.873E-09  6.504E-02  3.792E+02  3.924E+02
  9.922E-02  1.799E-01  1.017E+05 -7.635E-09  6.503E-02  3.627E+02  3.747E+02
  9.922E-02  1.862E-01  1.017E+05 -5.167E-09  6.503E-02  3.486E+02  3.592E+02
  9.922E-02  1.925E-01  1.017E+05 -2.619E-09  6.501E-02  3.367E+02  3.458E+02
  9.922E-02  1.988E-01  1.017E+05 -1.377E-10  6.500E-02  3.270E+02  3.346E+02
  9.922E-02  2.052E-01  1.017E+05  2.200E-09  6.500E-02  3.191E+02  3.254E+02
  9.922E-02  2.115E-01  1.017E+05  4.362E-09  6.501E-02  3.129E+02  3.179E+02
  9.922E-02  2.178E-01  1.017E+05  6.300E-09  6.501E-02  3.080E+02  3.120E+02
  9.922E-02  2.241E-01  1.017E+05  8.015E-09  6.500E-02  3.042E+02  3.074E+02
  9.922E-02  2.304E-01  1.016E+05  9.582E-09  6.499E-02  3.013E+02  3.038E+02
  9.922E-02  2.367E-01  1.016E+05  1.104E-08  6.499E-02  2.992E+02  3.011E+02
  9.922E-02  2.430E-01  1.016E+05  1.283E-08  6.498E-02  2.976E+02  2.990E+02
  9.922E-02  2.493E-01  1.016E+05  1.513E-08  6.498E-02  2.964E+02  2.974E+02
  9.922E-02  2.557E-01  1.016E+05  1.627E-08  6.499E-02  2.955E+02  2.963E+02
  9.922E-02  2.620E-01  1.016E+05  1.490E-08  6.499E-02  2.949E+02  2.954E+02
  9.922E-02  2.683E-01  1.016E+05  1.243E-08  6.499E-02  2.944E+02  2.948E+02
  9.922E-02  2.746E-01  1.016E+05  1.060E-08  6.499E-02  2.940E+02  2.944E+02
  9.922E-02  2.809E-01  1.016E+05  9.326E-09  6.499E-02  2.938E+02  2.940E+02
  9.922E-02  2.872E-01  1.016E+05  8.218E-09  6.498E-02  2.936E+02  2.938E+02
  9.922E-02  2.935E-01  1.016E+05  7.272E-09  6.498E-02  2.935E+02  2.936E+02
  9.922E-02  2.998E-01  1.016E+05  6.440E-09  6.498E-02  2.934E+02  2.935E+02
  9.922E-02  3.062E-01  1.016E+05  5.708E-09  6.498E-02  2.933E+02  2.934E+02
  9.922E-02  3.125E-01  1.015E+05  5.036E-09  6.498E-02  2.933E+02  2.933E+02
  9.922E-02  3.188E-01  1.015E+05  4.409E-09  6.498E-02  2.932E+02  2.933E+02
  9.922E-02  3.251E-01  1.015E+05  3.840E-09  6.498E-02  2.932E+02  2.932E+02
  9.922E-02  3.314E-01  1.015E+05  3.298E-09  6.498E-02  2.932E+02  2.932E+02
  9.922E-02  3.377E-01  1.015E+05  2.804E-09  6.498E-02  2.931E+02  2.932E+02