VARIABLES="XP","YP","P","U","V","TS","TF"
ZONE T="Zone 001"I=    82 J=    12 F=POINT
  0.000E+00  0.000E+00  1.019E+05  0.000E+00  0.000E+00  2.931E+02  2.931E+02
  0.000E+00  3.156E-03  1.019E+05  0.000E+00  0.000E+00  2.931E+02  2.931E+02
  0.000E+00  9.469E-03  1.019E+05  0.000E+00  0.000E+00  2.933E+02  2.932E+02
  0.000E+00  1.578E-02  1.019E+05  0.000E+00  0.000E+00  2.935E+02  2.934E+02
  0.000E+00  2.209E-02  1.019E+05  0.000E+00  0.000E+00  2.939E+02  2.937E+02
  0.000E+00  2.841E-02  1.019E+05  0.000E+00  0.000E+00  2.945E+02  2.942E+02
  0.000E+00  3.472E-02  1.019E+05  0.000E+00  0.000E+00  2.955E+02  2.950E+02
  0.000E+00  4.103E-02  1.019E+05  0.000E+00  0.000E+00  2.970E+02  2.962E+02
  0.000E+00  4.734E-02  1.019E+05  0.000E+00  0.000E+00  2.994E+02  2.982E+02
  0.000E+00  5.366E-02  1.018E+05  0.000E+00  0.000E+00  3.031E+02  3.012E+02
  0.000E+00  5.997E-02  1.018E+05  0.000E+00  0.000E+00  3.088E+02  3.058E+02
  0.000E+00  6.628E-02  1.018E+05  0.000E+00  0.000E+00  3.172E+02  3.127E+02
  0.000E+00  7.259E-02  1.018E+05  0.000E+00  0.000E+00  3.296E+02  3.228E+02
  0.000E+00  7.891E-02  1.018E+05  0.000E+00  0.000E+00  3.472E+02  3.375E+02
  0.000E+00  8.522E-02  1.018E+05  0.000E+00  0.000E+00  3.721E+02  3.584E+02
  0.000E+00  9.153E-02  1.018E+05  0.000E+00  0.000E+00  4.078E+02  3.882E+02
  0.000E+00  9.784E-02  1.018E+05  0.000E+00  0.000E+00  4.616E+02  4.330E+02
  0.000E+00  1.042E-01  1.018E+05  0.000E+00  0.000E+00  5.511E+02  5.273E+02
  0.000E+00  1.105E-01  1.018E+05  0.000E+00  0.000E+00  5.495E+02  5.403E+02
  0.000E+00  1.168E-01  1.018E+05  0.000E+00  0.000E+00  5.426E+02  5.415E+02
  0.000E+00  1.231E-01  1.018E+05  0.000E+00  0.000E+00  5.267E+02  5.325E+02
  0.000E+00  1.294E-01  1.018E+05  0.000E+00  0.000E+00  5.038E+02  5.153E+02
  0.000E+00  1.357E-01  1.018E+05  0.000E+00  0.000E+00  4.769E+02  4.923E+02
  0.000E+00  1.420E-01  1.017E+05  0.000E+00  0.000E+00  4.486E+02  4.662E+02
  0.000E+00  1.483E-01  1.017E+05  0.000E+00  0.000E+00  4.213E+02  4.394E+02
  0.000E+00  1.547E-01  1.017E+05  0.000E+00  0.000E+00  3.962E+02  4.137E+02
  0.000E+00  1.610E-01  1.017E+05  0.000E+00  0.000E+00  3.743E+02  3.902E+02
  0.000E+00  1.673E-01  1.017E+05  0.000E+00  0.000E+00  3.559E+02  3.698E+02
  0.000E+00  1.736E-01  1.017E+05  0.000E+00  0.000E+00  3.408E+02  3.525E+02
  0.000E+00  1.799E-01  1.017E+05  0.000E+00  0.000E+00  3.288E+02  3.384E+02
  0.000E+00  1.862E-01  1.017E+05  0.000E+00  0.000E+00  3.194E+02  3.271E+02
  0.000E+00  1.925E-01  1.017E+05  0.000E+00  0.000E+00  3.123E+02  3.183E+02
  0.000E+00  1.988E-01  1.017E+05  0.000E+00  0.000E+00  3.070E+02  3.116E+02
  0.000E+00  2.052E-01  1.017E+05  0.000E+00  0.000E+00  3.031E+02  3.065E+02
  0.000E+00  2.115E-01  1.017E+05  0.000E+00  0.000E+00  3.002E+02  3.028E+02
  0.000E+00  2.178E-01  1.017E+05  0.000E+00  0.000E+00  2.982E+02  3.000E+02
  0.000E+00  2.241E-01  1.017E+05  0.000E+00  0.000E+00  2.967E+02  2.981E+02
  0.000E+00  2.304E-01  1.016E+05  0.000E+00  0.000E+00  2.957E+02  2.966E+02
  0.000E+00  2.367E-01  1.016E+05  0.000E+00  0.000E+00  2.949E+02  2.956E+02
  0.000E+00  2.430E-01  1.016E+05  0.000E+00  0.000E+00  2.944E+02  2.949E+02
  0.000E+00  2.493E-01  1.016E+05  0.000E+00  0.000E+00  2.941E+02  2.944E+02
  0.000E+00  2.557E-01  1.016E+05  0.000E+00  0.000E+00  2.938E+02  2.940E+02
  0.000E+00  2.620E-01  1.016E+05  0.000E+00  0.000E+00  2.936E+02  2.938E+02
  0.000E+00  2.683E-01  1.016E+05  0.000E+00  0.000E+00  2.935E+02  2.936E+02
  0.000E+00  2.746E-01  1.016E+05  0.000E+00  0.000E+00  2.934E+02  2.935E+02
  0.000E+00  2.809E-01  1.016E+05  0.000E+00  0.000E+00  2.933E+02  2.934E+02
  0.000E+00  2.872E-01  1.016E+05  0.000E+00  0.000E+00  2.933E+02  2.933E+02
  0.000E+00  2.935E-01  1.016E+05  0.000E+00  0.000E+00  2.932E+02  2.933E+02
  0.000E+00  2.998E-01  1.016E+05  0.000E+00  0.000E+00  2.932E+02  2.932E+02
  0.000E+00  3.062E-01  1.016E+05  0.000E+00  0.000E+00  2.932E+02  2.932E+02
  0.000E+00  3.125E-01  1.015E+05  0.000E+00  0.000E+00  2.932E+02  2.932E+02
  0.000E+00  3.188E-01  1.015E+05  0.000E+00  0.000E+00  2.931E+02  2.931E+02
  0.000E+00  3.251E-01  1.015E+05  0.000E+00  0.000E+00  2.931E+02  2.931E+02
  0.000E+00  3.314E-01  1.015E+05  0.000E+00  0.000E+00  2.931E+02  2.931E+02
  0.000E+00  3.377E-01  1.015E+05  0.000E+00  0.000E+00  2.931E+02  2.931E+02
  0.000E+00  3.440E-01  1.015E+05  0.000E+00  0.000E+00  2.931E+02  2.931E+02
  0.000E+00  3.503E-01  1.015E+05  0.000E+00  0.000E+00  2.931E+02  2.931E+02
  0.000E+00  3.567E-01  1.015E+05  0.000E+00  0.000E+00  2.931E+02  2.931E+02
  0.000E+00  3.630E-01  1.015E+05  0.000E+00  0.000E+00  2.931E+02  2.931E+02
  0.000E+00  3.693E-01  1.015E+05  0.000E+00  0.000E+00  2.931E+02  2.931E+02
  0.000E+00  3.756E-01  1.015E+05  0.000E+00  0.000E+00  2.930E+02  2.930E+02
  0.000E+00  3.819E-01  1.015E+05  0.000E+00  0.000E+00  2.930E+02  2.930E+02
  0.000E+00  3.882E-01  1.015E+05  0.000E+00  0.000E+00  2.930E+02  2.930E+02
  0.000E+00  3.945E-01  1.015E+05  0.000E+00  0.000E+00  2.930E+02  2.930E+02
  0.000E+00  4.008E-01  1.014E+05  0.000E+00  0.000E+00  2.930E+02  2.930E+02
  0.000E+00  4.072E-01  1.014E+05  0.000E+00  0.000E+00  2.930E+02  2.930E+02
  0.000E+00  4.135E-01  1.014E+05  0.000E+00  0.000E+00  2.930E+02  2.930E+02
  0.000E+00  4.198E-01  1.014E+05  0.000E+00  0.000E+00  2.930E+02  2.930E+02
  0.000E+00  4.261E-01  1.014E+05  0.000E+00  0.000E+00  2.930E+02  2.930E+02
  0.000E+00  4.324E-01  1.014E+05  0.000E+00  0.000E+00  2.930E+02  2.930E+02
  0.000E+00  4.387E-01  1.014E+05  0.000E+00  0.000E+00  2.930E+02  2.930E+02
  0.000E+00  4.450E-01  1.014E+05  0.000E+00  0.000E+00  2.930E+02  2.930E+02
  0.000E+00  4.513E-01  1.014E+05  0.000E+00  0.000E+00  2.930E+02  2.930E+02
  0.000E+00  4.577E-01  1.014E+05  0.000E+00  0.000E+00  2.930E+02  2.930E+02
  0.000E+00  4.640E-01  1.014E+05  0.000E+00  0.000E+00  2.930E+02  2.930E+02
  0.000E+00  4.703E-01  1.014E+05  0.000E+00  0.000E+00  2.930E+02  2.930E+02
  0.000E+00  4.766E-01  1.014E+05  0.000E+00  0.000E+00  2.930E+02  2.930E+02
  0.000E+00  4.829E-01  1.014E+05  0.000E+00  0.000E+00  2.930E+02  2.930E+02
  0.000E+00  4.892E-01  1.013E+05  0.000E+00  0.000E+00  2.930E+02  2.930E+02
  0.000E+00  4.955E-01  1.013E+05  0.000E+00  0.000E+00  2.930E+02  2.930E+02
  0.000E+00  5.018E-01  1.013E+05  0.000E+00  0.000E+00  2.930E+02  2.930E+02
  0.000E+00  5.050E-01  1.013E+05  0.000E+00  0.000E+00  2.930E+02  2.930E+02
  1.417E-02  0.000E+00  1.019E+05  1.152E-07  6.500E-02  2.930E+02  2.931E+02
  1.417E-02  3.156E-03  1.019E+05  1.152E-07  6.455E-02  2.931E+02  2.931E+02
  1.417E-02  9.469E-03  1.019E+05  8.782E-08  6.471E-02  2.933E+02  2.932E+02
  1.417E-02  1.578E-02  1.019E+05  7.382E-08  6.477E-02  2.935E+02  2.934E+02
  1.417E-02  2.209E-02  1.019E+05  6.246E-08  6.479E-02  2.939E+02  2.937E+02
  1.417E-02  2.841E-02  1.019E+05  5.068E-08  6.480E-02  2.945E+02  2.942E+02
  1.417E-02  3.472E-02  1.019E+05  3.996E-08  6.479E-02  2.955E+02  2.950E+02
  1.417E-02  4.103E-02  1.019E+05  3.145E-08  6.479E-02  2.970E+02  2.962E+02
  1.417E-02  4.734E-02  1.019E+05  2.487E-08  6.479E-02  2.994E+02  2.982E+02
  1.417E-02  5.366E-02  1.018E+05  1.935E-08  6.479E-02  3.031E+02  3.012E+02
  1.417E-02  5.997E-02  1.018E+05  1.464E-08  6.478E-02  3.088E+02  3.058E+02
  1.417E-02  6.628E-02  1.018E+05  1.048E-08  6.477E-02  3.172E+02  3.127E+02
  1.417E-02  7.259E-02  1.018E+05  6.914E-09  6.476E-02  3.296E+02  3.228E+02
  1.417E-02  7.891E-02  1.018E+05  4.175E-09  6.475E-02  3.472E+02  3.375E+02
  1.417E-02  8.522E-02  1.018E+05  2.654E-09  6.474E-02  3.721E+02  3.584E+02
  1.417E-02  9.153E-02  1.018E+05  2.379E-09  6.472E-02  4.078E+02  3.882E+02
  1.417E-02  9.784E-02  1.018E+05  3.049E-09  6.467E-02  4.616E+02  4.330E+02
  1.417E-02  1.042E-01  1.018E+05  4.438E-09  6.484E-02  5.511E+02  5.273E+02
  1.417E-02  1.105E-01  1.018E+05  6.413E-09  6.476E-02  5.495E+02  5.403E+02
  1.417E-02  1.168E-01  1.018E+05  8.846E-09  6.480E-02  5.426E+02  5.415E+02
  1.417E-02  1.231E-01  1.018E+05  1.168E-08  6.482E-02  5.267E+02  5.325E+02
  1.417E-02  1.294E-01  1.018E+05  1.463E-08  6.485E-02  5.038E+02  5.153E+02
  1.417E-02  1.357E-01  1.018E+05  1.695E-08  6.486E-02  4.769E+02  4.923E+02
  1.417E-02  1.420E-01  1.017E+05  1.802E-08  6.487E-02  4.486E+02  4.662E+02
  1.417E-02  1.483E-01  1.017E+05  1.770E-08  6.487E-02  4.213E+02  4.394E+02
  1.417E-02  1.547E-01  1.017E+05  1.607E-08  6.486E-02  3.962E+02  4.137E+02
  1.417E-02  1.610E-01  1.017E+05  1.340E-08  6.486E-02  3.743E+02  3.902E+02
  1.417E-02  1.673E-01  1.017E+05  1.006E-08  6.485E-02  3.559E+02  3.698E+02
  1.417E-02  1.736E-01  1.017E+05  6.401E-09  6.483E-02  3.408E+02  3.525E+02
  1.417E-02  1.799E-01  1.017E+05  2.771E-09  6.483E-02  3.288E+02  3.384E+02
  1.417E-02  1.862E-01  1.017E+05 -5.595E-10  6.483E-02  3.194E+02  3.271E+02
  1.417E-02  1.925E-01  1.017E+05 -3.357E-09  6.482E-02  3.123E+02  3.183E+02
  1.417E-02  1.988E-01  1.017E+05 -5.536E-09  6.481E-02  3.070E+02  3.116E+02
  1.417E-02  2.052E-01  1.017E+05 -7.117E-09  6.480E-02  3.031E+02  3.065E+02
  1.417E-02  2.115E-01  1.017E+05 -8.185E-09  6.480E-02  3.002E+02  3.028E+02
  1.417E-02  2.178E-01  1.017E+05 -8.741E-09  6.480E-02  2.982E+02  3.000E+02
  1.417E-02  2.241E-01  1.017E+05 -8.817E-09  6.480E-02  2.967E+02  2.981E+02
  1.417E-02  2.304E-01  1.016E+05 -8.583E-09  6.480E-02  2.957E+02  2.966E+02
  1.417E-02  2.367E-01  1.016E+05 -8.175E-09  6.480E-02  2.949E+02  2.956E+02
  1.417E-02  2.430E-01  1.016E+05 -7.609E-09  6.479E-02  2.944E+02  2.949E+02
  1.417E-02  2.493E-01  1.016E+05 -6.914E-09  6.479E-02  2.941E+02  2.944E+02
  1.417E-02  2.557E-01  1.016E+05 -6.200E-09  6.479E-02  2.938E+02  2.940E+02
  1.417E-02  2.620E-01  1.016E+05 -5.478E-09  6.479E-02  2.936E+02  2.938E+02
  1.417E-02  2.683E-01  1.016E+05 -4.756E-09  6.479E-02  2.935E+02  2.936E+02
  1.417E-02  2.746E-01  1.016E+05 -4.075E-09  6.479E-02  2.934E+02  2.935E+02
  1.417E-02  2.809E-01  1.016E+05 -3.439E-09  6.479E-02  2.933E+02  2.934E+02
  1.417E-02  2.872E-01  1.016E+05 -2.842E-09  6.479E-02  2.933E+02  2.933E+02
  1.417E-02  2.935E-01  1.016E+05 -2.319E-09  6.479E-02  2.932E+02  2.933E+02
  1.417E-02  2.998E-01  1.016E+05 -1.771E-09  6.479E-02  2.932E+02  2.932E+02
  1.417E-02  3.062E-01  1.016E+05 -1.419E-09  6.479E-02  2.932E+02  2.932E+02
  1.417E-02  3.125E-01  1.015E+05 -1.268E-09  6.479E-02  2.932E+02  2.932E+02
  1.417E-02  3.188E-01  1.015E+05 -9.546E-10  6.479E-02  2.931E+02  2.931E+02
  1.417E-02  3.251E-01  1.015E+05 -8.154E-10  6.479E-02  2.931E+02  2.931E+02
  1.417E-02  3.314E-01  1.015E+05 -8.374E-10  6.481E-02  2.931E+02  2.931E+02
  1.417E-02  3.377E-01  1.015E+05 -8.118E-10  6.481E-02  2.931E+02  2.931E+02
  1.417E-02  3.440E-01  1.015E+05 -8.198E-10  6.479E-02  2.931E+02  2.931E+02
  1.417E-02  3.503E-01  1.015E+05 -8.289E-10  6.479E-02  2.931E+02  2.931E+02
  1.417E-02  3.567E-01  1.015E+05 -8.283E-10  6.479E-02  2.931E+02  2.931E+02
  1.417E-02  3.630E-01  1.015E+05 -8.234E-10  6.479E-02  2.931E+02  2.931E+02
  1.417E-02  3.693E-01  1.015E+05 -8.207E-10  6.479E-02  2.931E+02  2.931E+02
  1.417E-02  3.756E-01  1.015E+05 -7.953E-10  6.479E-02  2.930E+02  2.930E+02
  1.417E-02  3.819E-01  1.015E+05 -7.789E-10  6.479E-02  2.930E+02  2.930E+02
  1.417E-02  3.882E-01  1.015E+05 -7.478E-10  6.479E-02  2.930E+02  2.930E+02
  1.417E-02  3.945E-01  1.015E+05 -7.030E-10  6.479E-02  2.930E+02  2.930E+02
  1.417E-02  4.008E-01  1.014E+05 -6.776E-10  6.479E-02  2.930E+02  2.930E+02
  1.417E-02  4.072E-01  1.014E+05 -6.230E-10  6.479E-02  2.930E+02  2.930E+02
  1.417E-02  4.135E-01  1.014E+05 -5.673E-10  6.480E-02  2.930E+02  2.930E+02
  1.417E-02  4.198E-01  1.014E+05 -5.399E-10  6.480E-02  2.930E+02  2.930E+02
  1.417E-02  4.261E-01  1.014E+05 -4.849E-10  6.479E-02  2.930E+02  2.930E+02
  1.417E-02  4.324E-01  1.014E+05 -4.341E-10  6.479E-02  2.930E+02  2.930E+02
  1.417E-02  4.387E-01  1.014E+05 -3.841E-10  6.479E-02  2.930E+02  2.930E+02
  1.417E-02  4.450E-01  1.014E+05 -3.311E-10  6.479E-02  2.930E+02  2.930E+02
  1.417E-02  4.513E-01  1.014E+05 -2.998E-10  6.479E-02  2.930E+02  2.930E+02
  1.417E-02  4.577E-01  1.014E+05 -2.625E-10  6.479E-02  2.930E+02  2.930E+02
  1.417E-02  4.640E-01  1.014E+05 -2.229E-10  6.479E-02  2.930E+02  2.930E+02
  1.417E-02  4.703E-01  1.014E+05 -1.801E-10  6.479E-02  2.930E+02  2.930E+02
  1.417E-02  4.766E-01  1.014E+05 -1.356E-10  6.479E-02  2.930E+02  2.930E+02
  1.417E-02  4.829E-01  1.014E+05 -9.288E-11  6.480E-02  2.930E+02  2.930E+02
  1.417E-02  4.892E-01  1.013E+05 -5.570E-11  6.483E-02  2.930E+02  2.930E+02
  1.417E-02  4.955E-01  1.013E+05 -2.851E-11  6.490E-02  2.930E+02  2.930E+02
  1.417E-02  5.018E-01  1.013E+05 -1.905E-11  6.500E-02  2.930E+02  2.930E+02
  1.417E-02  5.050E-01  1.013E+05 -1.905E-11  6.500E-02  2.930E+02  2.930E+02
  4.252E-02  0.000E+00  1.019E+05  1.435E-07  6.500E-02  2.930E+02  2.931E+02
  4.252E-02  3.156E-03  1.019E+05  1.435E-07  6.455E-02  2.931E+02  2.931E+02
  4.252E-02  9.469E-03  1.019E+05  1.168E-07  6.472E-02  2.933E+02  2.932E+02
  4.252E-02  1.578E-02  1.019E+05  9.967E-08  6.477E-02  2.935E+02  2.934E+02
  4.252E-02  2.209E-02  1.019E+05  8.554E-08  6.479E-02  2.939E+02  2.937E+02
  4.252E-02  2.841E-02  1.019E+05  7.000E-08  6.480E-02  2.946E+02  2.942E+02
  4.252E-02  3.472E-02  1.019E+05  5.516E-08  6.479E-02  2.955E+02  2.950E+02
  4.252E-02  4.103E-02  1.019E+05  4.400E-08  6.479E-02  2.970E+02  2.962E+02
  4.252E-02  4.734E-02  1.019E+05  3.561E-08  6.479E-02  2.994E+02  2.982E+02
  4.252E-02  5.366E-02  1.018E+05  2.902E-08  6.479E-02  3.031E+02  3.012E+02
  4.252E-02  5.997E-02  1.018E+05  2.398E-08  6.478E-02  3.088E+02  3.058E+02
  4.252E-02  6.628E-02  1.018E+05  2.002E-08  6.477E-02  3.172E+02  3.127E+02
  4.252E-02  7.259E-02  1.018E+05  1.667E-08  6.476E-02  3.296E+02  3.229E+02
  4.252E-02  7.891E-02  1.018E+05  1.363E-08  6.476E-02  3.472E+02  3.375E+02
  4.252E-02  8.522E-02  1.018E+05  1.161E-08  6.474E-02  3.721E+02  3.584E+02
  4.252E-02  9.153E-02  1.018E+05  1.072E-08  6.472E-02  4.078E+02  3.882E+02
  4.252E-02  9.784E-02  1.018E+05  9.870E-09  6.467E-02  4.616E+02  4.330E+02
  4.252E-02  1.042E-01  1.018E+05  1.058E-08  6.484E-02  5.510E+02  5.273E+02
  4.252E-02  1.105E-01  1.018E+05  1.493E-08  6.476E-02  5.495E+02  5.403E+02
  4.252E-02  1.168E-01  1.018E+05  1.977E-08  6.480E-02  5.425E+02  5.414E+02
  4.252E-02  1.231E-01  1.018E+05  2.364E-08  6.482E-02  5.267E+02  5.325E+02
  4.252E-02  1.294E-01  1.018E+05  2.704E-08  6.485E-02  5.038E+02  5.152E+02
  4.252E-02  1.357E-01  1.018E+05  2.911E-08  6.486E-02  4.769E+02  4.923E+02
  4.252E-02  1.420E-01  1.017E+05  2.874E-08  6.487E-02  4.486E+02  4.662E+02
  4.252E-02  1.483E-01  1.017E+05  2.607E-08  6.487E-02  4.213E+02  4.394E+02
  4.252E-02  1.547E-01  1.017E+05  2.157E-08  6.486E-02  3.962E+02  4.137E+02
  4.252E-02  1.610E-01  1.017E+05  1.563E-08  6.486E-02  3.743E+02  3.902E+02
  4.252E-02  1.673E-01  1.017E+05  9.017E-09  6.485E-02  3.559E+02  3.698E+02
  4.252E-02  1.736E-01  1.017E+05  2.911E-09  6.483E-02  3.408E+02  3.526E+02
  4.252E-02  1.799E-01  1.017E+05 -2.730E-09  6.483E-02  3.288E+02  3.384E+02
  4.252E-02  1.862E-01  1.017E+05 -7.519E-09  6.483E-02  3.195E+02  3.272E+02
  4.252E-02  1.925E-01  1.017E+05 -1.108E-08  6.482E-02  3.124E+02  3.184E+02
  4.252E-02  1.988E-01  1.017E+05 -1.362E-08  6.481E-02  3.070E+02  3.116E+02
  4.252E-02  2.052E-01  1.017E+05 -1.511E-08  6.480E-02  3.031E+02  3.066E+02
  4.252E-02  2.115E-01  1.017E+05 -1.592E-08  6.480E-02  3.002E+02  3.028E+02
  4.252E-02  2.178E-01  1.017E+05 -1.601E-08  6.480E-02  2.982E+02  3.001E+02
  4.252E-02  2.241E-01  1.017E+05 -1.543E-08  6.480E-02  2.967E+02  2.981E+02
  4.252E-02  2.304E-01  1.016E+05 -1.448E-08  6.480E-02  2.957E+02  2.966E+02
  4.252E-02  2.367E-01  1.016E+05 -1.338E-08  6.480E-02  2.949E+02  2.956E+02
  4.252E-02  2.430E-01  1.016E+05 -1.214E-08  6.479E-02  2.944E+02  2.949E+02
  4.252E-02  2.493E-01  1.016E+05 -1.083E-08  6.479E-02  2.941E+02  2.944E+02
  4.252E-02  2.557E-01  1.016E+05 -9.521E-09  6.479E-02  2.938E+02  2.941E+02
  4.252E-02  2.620E-01  1.016E+05 -8.249E-09  6.479E-02  2.936E+02  2.938E+02
  4.252E-02  2.683E-01  1.016E+05 -7.057E-09  6.479E-02  2.935E+02  2.936E+02
  4.252E-02  2.746E-01  1.016E+05 -5.917E-09  6.479E-02  2.934E+02  2.935E+02
  4.252E-02  2.809E-01  1.016E+05 -4.793E-09  6.479E-02  2.933E+02  2.934E+02
  4.252E-02  2.872E-01  1.016E+05 -3.628E-09  6.479E-02  2.933E+02  2.933E+02
  4.252E-02  2.935E-01  1.016E+05 -2.414E-09  6.479E-02  2.932E+02  2.933E+02
  4.252E-02  2.998E-01  1.016E+05 -7.367E-10  6.479E-02  2.932E+02  2.932E+02
  4.252E-02  3.062E-01  1.016E+05  1.568E-09  6.479E-02  2.932E+02  2.932E+02
  4.252E-02  3.125E-01  1.015E+05  2.965E-09  6.479E-02  2.932E+02  2.932E+02
  4.252E-02  3.188E-01  1.015E+05  2.247E-09  6.479E-02  2.931E+02  2.931E+02
  4.252E-02  3.251E-01  1.015E+05  6.696E-10  6.479E-02  2.931E+02  2.931E+02
  4.252E-02  3.314E-01  1.015E+05 -3.345E-10  6.481E-02  2.931E+02  2.931E+02
  4.252E-02  3.377E-01  1.015E+05 -7.344E-10  6.481E-02  2.931E+02  2.931E+02
  4.252E-02  3.440E-01  1.015E+05 -1.036E-09  6.479E-02  2.931E+02  2.931E+02
  4.252E-02  3.503E-01  1.015E+05 -1.207E-09  6.479E-02  2.931E+02  2.931E+02
  4.252E-02  3.567E-01  1.015E+05 -1.300E-09  6.479E-02  2.931E+02  2.931E+02
  4.252E-02  3.630E-01  1.015E+05 -1.351E-09  6.479E-02  2.931E+02  2.931E+02
  4.252E-02  3.693E-01  1.015E+05 -1.383E-09  6.479E-02  2.931E+02  2.931E+02
  4.252E-02  3.756E-01  1.015E+05 -1.377E-09  6.479E-02  2.930E+02  2.931E+02
  4.252E-02  3.819E-01  1.015E+05 -1.353E-09  6.479E-02  2.930E+02  2.930E+02
  4.252E-02  3.882E-01  1.015E+05 -1.309E-09  6.479E-02  2.930E+02  2.930E+02
  4.252E-02  3.945E-01  1.015E+05 -1.247E-09  6.479E-02  2.930E+02  2.930E+02
  4.252E-02  4.008E-01  1.014E+05 -1.195E-09  6.479E-02  2.930E+02  2.930E+02
  4.252E-02  4.072E-01  1.014E+05 -1.071E-09  6.479E-02  2.930E+02  2.930E+02
  4.252E-02  4.135E-01  1.014E+05 -1.020E-09  6.481E-02  2.930E+02  2.930E+02
  4.252E-02  4.198E-01  1.014E+05 -9.264E-10  6.481E-02  2.930E+02  2.930E+02
  4.252E-02  4.261E-01  1.014E+05 -8.393E-10  6.479E-02  2.930E+02  2.930E+02
  4.252E-02  4.324E-01  1.014E+05 -7.645E-10  6.479E-02  2.930E+02  2.930E+02
  4.252E-02  4.387E-01  1.014E+05 -6.977E-10  6.479E-02  2.930E+02  2.930E+02
  4.252E-02  4.450E-01  1.014E+05 -6.296E-10  6.479E-02  2.930E+02  2.930E+02
  4.252E-02  4.513E-01  1.014E+05 -5.890E-10  6.479E-02  2.930E+02  2.930E+02
  4.252E-02  4.577E-01  1.014E+05 -5.605E-10  6.479E-02  2.930E+02  2.930E+02
  4.252E-02  4.640E-01  1.014E+05 -5.459E-10  6.479E-02  2.930E+02  2.930E+02
  4.252E-02  4.703E-01  1.014E+05 -5.410E-10  6.479E-02  2.930E+02  2.930E+02
  4.252E-02  4.766E-01  1.014E+05 -5.333E-10  6.479E-02  2.930E+02  2.930E+02
  4.252E-02  4.829E-01  1.014E+05 -4.476E-10  6.480E-02  2.930E+02  2.930E+02
  4.252E-02  4.892E-01  1.013E+05 -3.536E-10  6.483E-02  2.930E+02  2.930E+02
  4.252E-02  4.955E-01  1.013E+05 -2.398E-10  6.491E-02  2.930E+02  2.930E+02
  4.252E-02  5.018E-01  1.013E+05 -1.223E-10  6.500E-02  2.930E+02  2.930E+02
  4.252E-02  5.050E-01  1.013E+05 -1.223E-10  6.500E-02  2.930E+02  2.930E+02
  7.087E-02  0.000E+00  1.019E+05  1.293E-06  6.500E-02  2.930E+02  2.931E+02
  7.087E-02  3.156E-03  1.019E+05  1.293E-06  6.455E-02  2.931E+02  2.931E+02
  7.087E-02  9.469E-03  1.019E+05 -1.193E-07  6.472E-02  2.933E+02  2.932E+02
  7.087E-02  1.578E-02  1.019E+05  8.086E-08  6.477E-02  2.935E+02  2.934E+02
  7.087E-02  2.209E-02  1.019E+05  6.433E-08  6.479E-02  2.939E+02  2.937E+02
  7.087E-02  2.841E-02  1.019E+05  4.067E-08  6.480E-02  2.945E+02  2.942E+02
  7.087E-02  3.472E-02  1.019E+05  3.312E-09  6.479E-02  2.955E+02  2.950E+02
  7.087E-02  4.103E-02  1.019E+05  1.811E-09  6.479E-02  2.970E+02  2.962E+02
  7.087E-02  4.734E-02  1.019E+05  5.306E-09  6.479E-02  2.994E+02  2.982E+02
  7.087E-02  5.366E-02  1.018E+05  5.260E-09  6.479E-02  3.031E+02  3.012E+02
  7.087E-02  5.997E-02  1.018E+05  5.721E-09  6.478E-02  3.088E+02  3.058E+02
  7.087E-02  6.628E-02  1.018E+05  5.903E-09  6.477E-02  3.172E+02  3.127E+02
  7.087E-02  7.259E-02  1.018E+05  6.223E-09  6.476E-02  3.296E+02  3.228E+02
  7.087E-02  7.891E-02  1.018E+05  6.836E-09  6.476E-02  3.472E+02  3.375E+02
  7.087E-02  8.522E-02  1.018E+05  7.797E-09  6.474E-02  3.721E+02  3.584E+02
  7.087E-02  9.153E-02  1.018E+05  8.808E-09  6.472E-02  4.078E+02  3.882E+02
  7.087E-02  9.784E-02  1.018E+05  9.767E-09  6.467E-02  4.616E+02  4.330E+02
  7.087E-02  1.042E-01  1.018E+05  1.027E-08  6.484E-02  5.510E+02  5.273E+02
  7.087E-02  1.105E-01  1.018E+05  1.028E-08  6.476E-02  5.495E+02  5.403E+02
  7.087E-02  1.168E-01  1.018E+05  9.740E-09  6.480E-02  5.425E+02  5.414E+02
  7.087E-02  1.231E-01  1.018E+05  9.036E-09  6.482E-02  5.267E+02  5.325E+02
  7.087E-02  1.294E-01  1.018E+05  7.541E-09  6.485E-02  5.038E+02  5.152E+02
  7.087E-02  1.357E-01  1.018E+05  5.464E-09  6.486E-02  4.769E+02  4.923E+02
  7.087E-02  1.420E-01  1.017E+05  2.749E-09  6.487E-02  4.487E+02  4.662E+02
  7.087E-02  1.483E-01  1.017E+05 -5.313E-10  6.487E-02  4.213E+02  4.394E+02
  7.087E-02  1.547E-01  1.017E+05 -3.807E-09  6.486E-02  3.963E+02  4.137E+02
  7.087E-02  1.610E-01  1.017E+05 -7.461E-09  6.486E-02  3.744E+02  3.903E+02
  7.087E-02  1.673E-01  1.017E+05 -1.006E-08  6.485E-02  3.559E+02  3.698E+02
  7.087E-02  1.736E-01  1.017E+05 -9.436E-09  6.483E-02  3.408E+02  3.526E+02
  7.087E-02  1.799E-01  1.017E+05 -7.929E-09  6.483E-02  3.288E+02  3.385E+02
  7.087E-02  1.862E-01  1.017E+05 -7.061E-09  6.483E-02  3.195E+02  3.272E+02
  7.087E-02  1.925E-01  1.017E+05 -6.217E-09  6.482E-02  3.124E+02  3.184E+02
  7.087E-02  1.988E-01  1.017E+05 -5.404E-09  6.481E-02  3.071E+02  3.117E+02
  7.087E-02  2.052E-01  1.017E+05 -4.475E-09  6.480E-02  3.031E+02  3.066E+02
  7.087E-02  2.115E-01  1.017E+05 -3.623E-09  6.480E-02  3.003E+02  3.028E+02
  7.087E-02  2.178E-01  1.017E+05 -2.782E-09  6.480E-02  2.982E+02  3.001E+02
  7.087E-02  2.241E-01  1.017E+05 -1.927E-09  6.480E-02  2.967E+02  2.981E+02
  7.087E-02  2.304E-01  1.016E+05 -1.177E-09  6.480E-02  2.957E+02  2.967E+02
  7.087E-02  2.367E-01  1.016E+05 -5.970E-10  6.480E-02  2.949E+02  2.956E+02
  7.087E-02  2.430E-01  1.016E+05 -1.556E-10  6.480E-02  2.944E+02  2.949E+02
  7.087E-02  2.493E-01  1.016E+05  1.120E-10  6.479E-02  2.941E+02  2.944E+02
  7.087E-02  2.557E-01  1.016E+05  2.087E-10  6.479E-02  2.938E+02  2.941E+02
  7.087E-02  2.620E-01  1.016E+05  1.177E-10  6.479E-02  2.936E+02  2.938E+02
  7.087E-02  2.683E-01  1.016E+05 -2.248E-10  6.479E-02  2.935E+02  2.936E+02
  7.087E-02  2.746E-01  1.016E+05 -7.959E-10  6.479E-02  2.934E+02  2.935E+02
  7.087E-02  2.809E-01  1.016E+05 -1.912E-09  6.479E-02  2.933E+02  2.934E+02
  7.087E-02  2.872E-01  1.016E+05 -2.828E-09  6.479E-02  2.933E+02  2.933E+02
  7.087E-02  2.935E-01  1.016E+05 -7.441E-09  6.479E-02  2.932E+02  2.933E+02
  7.087E-02  2.998E-01  1.016E+05 -7.331E-09  6.479E-02  2.932E+02  2.932E+02
  7.087E-02  3.062E-01  1.016E+05  2.418E-08  6.479E-02  2.932E+02  2.932E+02
  7.087E-02  3.125E-01  1.015E+05  5.132E-08  6.479E-02  2.932E+02  2.932E+02
  7.087E-02  3.188E-01  1.015E+05  2.456E-08  6.479E-02  2.931E+02  2.931E+02
  7.087E-02  3.251E-01  1.015E+05 -7.454E-09  6.479E-02  2.931E+02  2.931E+02
  7.087E-02  3.314E-01  1.015E+05 -8.205E-09  6.481E-02  2.931E+02  2.931E+02
  7.087E-02  3.377E-01  1.015E+05 -3.789E-09  6.481E-02  2.931E+02  2.931E+02
  7.087E-02  3.440E-01  1.015E+05 -3.086E-09  6.479E-02  2.931E+02  2.931E+02
  7.087E-02  3.503E-01  1.015E+05 -2.159E-09  6.479E-02  2.931E+02  2.931E+02
  7.087E-02  3.567E-01  1.015E+05 -1.731E-09  6.479E-02  2.931E+02  2.931E+02
  7.087E-02  3.630E-01  1.015E+05 -1.463E-09  6.479E-02  2.931E+02  2.931E+02
  7.087E-02  3.693E-01  1.015E+05 -1.303E-09  6.479E-02  2.931E+02  2.931E+02
  7.087E-02  3.756E-01  1.015E+05 -1.211E-09  6.479E-02  2.930E+02  2.931E+02
  7.087E-02  3.819E-01  1.015E+05 -1.143E-09  6.479E-02  2.930E+02  2.930E+02
  7.087E-02  3.882E-01  1.015E+05 -1.088E-09  6.479E-02  2.930E+02  2.930E+02
  7.087E-02  3.945E-01  1.015E+05 -1.051E-09  6.479E-02  2.930E+02  2.930E+02
  7.087E-02  4.008E-01  1.014E+05 -9.944E-10  6.479E-02  2.930E+02  2.930E+02
  7.087E-02  4.072E-01  1.014E+05 -8.960E-10  6.479E-02  2.930E+02  2.930E+02
  7.087E-02  4.135E-01  1.014E+05 -8.954E-10  6.481E-02  2.930E+02  2.930E+02
  7.087E-02  4.198E-01  1.014E+05 -8.115E-10  6.481E-02  2.930E+02  2.930E+02
  7.087E-02  4.261E-01  1.014E+05 -7.460E-10  6.479E-02  2.930E+02  2.930E+02
  7.087E-02  4.324E-01  1.014E+05 -6.762E-10  6.479E-02  2.930E+02  2.930E+02
  7.087E-02  4.387E-01  1.014E+05 -6.034E-10  6.479E-02  2.930E+02  2.930E+02
  7.087E-02  4.450E-01  1.014E+05 -5.228E-10  6.479E-02  2.930E+02  2.930E+02
  7.087E-02  4.513E-01  1.014E+05 -4.426E-10  6.479E-02  2.930E+02  2.930E+02
  7.087E-02  4.577E-01  1.014E+05 -3.841E-10  6.479E-02  2.930E+02  2.930E+02
  7.087E-02  4.640E-01  1.014E+05 -3.557E-10  6.479E-02  2.930E+02  2.930E+02
  7.087E-02  4.703E-01  1.014E+05 -3.686E-10  6.479E-02  2.930E+02  2.930E+02
  7.087E-02  4.766E-01  1.014E+05 -3.864E-10  6.479E-02  2.930E+02  2.930E+02
  7.087E-02  4.829E-01  1.014E+05 -3.259E-10  6.480E-02  2.930E+02  2.930E+02
  7.087E-02  4.892E-01  1.013E+05 -2.725E-10  6.483E-02  2.930E+02  2.930E+02
  7.087E-02  4.955E-01  1.013E+05 -2.205E-10  6.491E-02  2.930E+02  2.930E+02
  7.087E-02  5.018E-01  1.013E+05 -1.559E-10  6.500E-02  2.930E+02  2.930E+02
  7.087E-02  5.050E-01  1.013E+05 -1.559E-10  6.500E-02  2.930E+02  2.930E+02
  9.922E-02  0.000E+00  1.019E+05  2.985E-06  6.500E-02  2.930E+02  2.931E+02
  9.922E-02  3.156E-03  1.019E+05  2.985E-06  6.455E-02  2.931E+02  2.931E+02
  9.922E-02  9.469E-03  1.019E+05  4.971E-07  6.471E-02  2.933E+02  2.932E+02
  9.922E-02  1.578E-02  1.019E+05 -2.777E-07  6.477E-02  2.935E+02  2.934E+02
  9.922E-02  2.209E-02  1.019E+05 -5.336E-08  6.479E-02  2.939E+02  2.937E+02
  9.922E-02  2.841E-02  1.019E+05 -6.174E-08  6.480E-02  2.946E+02  2.942E+02
  9.922E-02  3.472E-02  1.019E+05 -6.417E-08  6.479E-02  2.955E+02  2.950E+02
  9.922E-02  4.103E-02  1.019E+05 -4.580E-08  6.479E-02  2.970E+02  2.962E+02
  9.922E-02  4.734E-02  1.019E+05 -2.833E-08  6.479E-02  2.994E+02  2.982E+02
  9.922E-02  5.366E-02  1.018E+05 -1.949E-08  6.479E-02  3.031E+02  3.012E+02
  9.922E-02  5.997E-02  1.018E+05 -1.377E-08  6.478E-02  3.088E+02  3.058E+02
  9.922E-02  6.628E-02  1.018E+05 -1.098E-08  6.477E-02  3.172E+02  3.127E+02
  9.922E-02  7.259E-02  1.018E+05 -9.798E-09  6.476E-02  3.296E+02  3.228E+02
  9.922E-02  7.891E-02  1.018E+05 -8.977E-09  6.476E-02  3.472E+02  3.375E+02
  9.922E-02  8.522E-02  1.018E+05 -7.960E-09  6.474E-02  3.721E+02  3.584E+02
  9.922E-02  9.153E-02  1.018E+05 -6.516E-09  6.472E-02  4.078E+02  3.882E+02
  9.922E-02  9.784E-02  1.018E+05 -3.611E-09  6.467E-02  4.616E+02  4.330E+02
  9.922E-02  1.042E-01  1.018E+05 -1.867E-09  6.484E-02  5.511E+02  5.273E+02
  9.922E-02  1.105E-01  1.018E+05 -3.903E-09  6.476E-02  5.495E+02  5.403E+02
  9.922E-02  1.168E-01  1.018E+05 -7.378E-09  6.480E-02  5.425E+02  5.415E+02
  9.922E-02  1.231E-01  1.018E+05 -1.052E-08  6.482E-02  5.267E+02  5.325E+02
  9.922E-02  1.294E-01  1.018E+05 -1.514E-08  6.485E-02  5.038E+02  5.152E+02
  9.922E-02  1.357E-01  1.018E+05 -2.042E-08  6.486E-02  4.769E+02  4.923E+02
  9.922E-02  1.420E-01  1.017E+05 -2.369E-08  6.487E-02  4.487E+02  4.662E+02
  9.922E-02  1.483E-01  1.017E+05 -2.323E-08  6.487E-02  4.213E+02  4.394E+02
  9.922E-02  1.547E-01  1.017E+05 -2.081E-08  6.486E-02  3.963E+02  4.137E+02
  9.922E-02  1.610E-01  1.017E+05 -1.893E-08  6.486E-02  3.744E+02  3.903E+02
  9.922E-02  1.673E-01  1.017E+05 -1.627E-08  6.485E-02  3.559E+02  3.698E+02
  9.922E-02  1.736E-01  1.017E+05 -1.102E-08  6.483E-02  3.408E+02  3.526E+02
  9.922E-02  1.799E-01  1.017E+05 -5.423E-09  6.483E-02  3.288E+02  3.384E+02
  9.922E-02  1.862E-01  1.017E+05 -1.071E-09  6.483E-02  3.195E+02  3.272E+02
  9.922E-02  1.925E-01  1.017E+05  2.412E-09  6.482E-02  3.124E+02  3.184E+02
  9.922E-02  1.988E-01  1.017E+05  5.158E-09  6.481E-02  3.070E+02  3.116E+02
  9.922E-02  2.052E-01  1.017E+05  7.406E-09  6.480E-02  3.031E+02  3.066E+02
  9.922E-02  2.115E-01  1.017E+05  9.153E-09  6.480E-02  3.002E+02  3.028E+02
  9.922E-02  2.178E-01  1.017E+05  1.043E-08  6.480E-02  2.982E+02  3.001E+02
  9.922E-02  2.241E-01  1.017E+05  1.108E-08  6.480E-02  2.967E+02  2.981E+02
  9.922E-02  2.304E-01  1.016E+05  1.129E-08  6.480E-02  2.957E+02  2.966E+02
  9.922E-02  2.367E-01  1.016E+05  1.124E-08  6.480E-02  2.949E+02  2.956E+02
  9.922E-02  2.430E-01  1.016E+05  1.086E-08  6.479E-02  2.944E+02  2.949E+02
  9.922E-02  2.493E-01  1.016E+05  1.015E-08  6.479E-02  2.941E+02  2.944E+02
  9.922E-02  2.557E-01  1.016E+05  9.135E-09  6.479E-02  2.938E+02  2.941E+02
  9.922E-02  2.620E-01  1.016E+05  7.856E-09  6.479E-02  2.936E+02  2.938E+02
  9.922E-02  2.683E-01  1.016E+05  6.352E-09  6.479E-02  2.935E+02  2.936E+02
  9.922E-02  2.746E-01  1.016E+05  4.635E-09  6.479E-02  2.934E+02  2.935E+02
  9.922E-02  2.809E-01  1.016E+05  2.443E-09  6.479E-02  2.933E+02  2.934E+02
  9.922E-02  2.872E-01  1.016E+05  7.534E-10  6.479E-02  2.933E+02  2.933E+02
  9.922E-02  2.935E-01  1.016E+05 -4.273E-09  6.479E-02  2.932E+02  2.933E+02
  9.922E-02  2.998E-01  1.016E+05 -3.449E-09  6.479E-02  2.932E+02  2.932E+02
  9.922E-02  3.062E-01  1.016E+05  3.055E-08  6.479E-02  2.932E+02  2.932E+02
  9.922E-02  3.125E-01  1.015E+05  5.912E-08  6.479E-02  2.932E+02  2.932E+02
  9.922E-02  3.188E-01  1.015E+05  3.000E-08  6.479E-02  2.931E+02  2.931E+02
  9.922E-02  3.251E-01  1.015E+05 -5.514E-09  6.479E-02  2.931E+02  2.931E+02
  9.922E-02  3.314E-01  1.015E+05 -7.979E-09  6.481E-02  2.931E+02  2.931E+02
  9.922E-02  3.377E-01  1.015E+05 -4.171E-09  6.481E-02  2.931E+02  2.931E+02