VARIABLES="XP","YP","P","U","V","TS","TF"
ZONE T="Zone 001"I=    82 J=    12 F=POINT
  0.000E+00  0.000E+00  1.012E+05  2.335E-08 -3.592E-03  2.930E+02  5.106E+02
  0.000E+00  3.156E-03  1.012E+05  2.335E-08 -3.592E-03  2.930E+02  5.106E+02
  0.000E+00  9.469E-03  1.012E+05  1.912E-08 -3.847E-03  2.930E+02  7.925E+02
  0.000E+00  1.578E-02  1.012E+05  1.784E-08 -5.708E-03  2.930E+02  8.566E+02
  0.000E+00  2.209E-02  1.012E+05  1.561E-08 -7.546E-03  2.930E+02  8.688E+02
  0.000E+00  2.841E-02  1.013E+05  1.322E-08 -8.837E-03  2.930E+02  8.741E+02
  0.000E+00  3.472E-02  1.013E+05  1.107E-08 -9.825E-03  2.930E+02  8.783E+02
  0.000E+00  4.103E-02  1.013E+05  9.220E-09 -1.058E-02  2.930E+02  8.821E+02
  0.000E+00  4.734E-02  1.013E+05  7.722E-09 -1.116E-02  2.930E+02  8.857E+02
  0.000E+00  5.366E-02  1.013E+05  6.563E-09 -1.164E-02  2.930E+02  8.892E+02
  0.000E+00  5.997E-02  1.013E+05  5.676E-09 -1.208E-02  2.932E+02  8.926E+02
  0.000E+00  6.628E-02  1.013E+05  4.937E-09 -1.251E-02  2.937E+02  8.960E+02
  0.000E+00  7.259E-02  1.013E+05  4.238E-09 -1.294E-02  2.955E+02  8.992E+02
  0.000E+00  7.891E-02  1.013E+05  3.469E-09 -1.342E-02  3.014E+02  9.024E+02
  0.000E+00  8.522E-02  1.013E+05  2.072E-09 -1.407E-02  3.177E+02  9.055E+02
  0.000E+00  9.153E-02  1.013E+05  5.682E-10 -1.393E-02  3.544E+02  9.084E+02
  0.000E+00  9.784E-02  1.013E+05 -7.722E-10 -1.402E-02  3.177E+02  7.625E+02
  0.000E+00  1.042E-01  1.013E+05 -2.097E-09 -1.363E-02  3.014E+02  7.492E+02
  0.000E+00  1.105E-01  1.013E+05 -2.939E-09 -1.316E-02  2.955E+02  7.491E+02
  0.000E+00  1.168E-01  1.013E+05 -3.507E-09 -1.272E-02  2.937E+02  7.504E+02
  0.000E+00  1.231E-01  1.013E+05 -3.907E-09 -1.226E-02  2.932E+02  7.520E+02
  0.000E+00  1.294E-01  1.013E+05 -4.172E-09 -1.178E-02  2.930E+02  7.537E+02
  0.000E+00  1.357E-01  1.013E+05 -4.329E-09 -1.131E-02  2.930E+02  7.555E+02
  0.000E+00  1.420E-01  1.013E+05 -4.400E-09 -1.084E-02  2.930E+02  7.574E+02
  0.000E+00  1.483E-01  1.013E+05 -4.389E-09 -1.038E-02  2.930E+02  7.595E+02
  0.000E+00  1.547E-01  1.013E+05 -4.322E-09 -9.940E-03  2.930E+02  7.618E+02
  0.000E+00  1.610E-01  1.013E+05 -4.221E-09 -9.517E-03  2.930E+02  7.642E+02
  0.000E+00  1.673E-01  1.013E+05 -4.095E-09 -9.116E-03  2.930E+02  7.669E+02
  0.000E+00  1.736E-01  1.013E+05 -3.959E-09 -8.736E-03  2.930E+02  7.698E+02
  0.000E+00  1.799E-01  1.013E+05 -3.816E-09 -8.370E-03  2.930E+02  7.730E+02
  0.000E+00  1.862E-01  1.013E+05 -3.675E-09 -8.031E-03  2.930E+02  7.765E+02
  0.000E+00  1.925E-01  1.013E+05 -3.557E-09 -7.710E-03  2.930E+02  7.803E+02
  0.000E+00  1.988E-01  1.013E+05 -3.466E-09 -7.403E-03  2.930E+02  7.845E+02
  0.000E+00  2.052E-01  1.013E+05 -3.416E-09 -7.112E-03  2.930E+02  7.891E+02
  0.000E+00  2.115E-01  1.013E+05 -3.413E-09 -6.819E-03  2.930E+02  7.941E+02
  0.000E+00  2.178E-01  1.013E+05 -3.431E-09 -6.516E-03  2.930E+02  7.997E+02
  0.000E+00  2.241E-01  1.013E+05 -3.440E-09 -6.206E-03  2.930E+02  8.058E+02
  0.000E+00  2.304E-01  1.013E+05 -3.441E-09 -5.904E-03  2.930E+02  8.126E+02
  0.000E+00  2.367E-01  1.013E+05 -3.462E-09 -5.612E-03  2.930E+02  8.201E+02
  0.000E+00  2.430E-01  1.013E+05 -3.505E-09 -5.304E-03  2.930E+02  8.284E+02
  0.000E+00  2.493E-01  1.013E+05 -3.542E-09 -4.984E-03  2.930E+02  8.374E+02
  0.000E+00  2.557E-01  1.013E+05 -3.576E-09 -4.668E-03  2.930E+02  8.474E+02
  0.000E+00  2.620E-01  1.013E+05 -3.607E-09 -4.340E-03  2.930E+02  8.582E+02
  0.000E+00  2.683E-01  1.013E+05 -3.621E-09 -4.009E-03  2.930E+02  8.699E+02
  0.000E+00  2.746E-01  1.013E+05 -3.625E-09 -3.685E-03  2.930E+02  8.826E+02
  0.000E+00  2.809E-01  1.013E+05 -3.627E-09 -3.359E-03  2.930E+02  8.963E+02
  0.000E+00  2.872E-01  1.013E+05 -3.620E-09 -3.031E-03  2.930E+02  9.109E+02
  0.000E+00  2.935E-01  1.013E+05 -3.593E-09 -2.699E-03  2.930E+02  9.264E+02
  0.000E+00  2.998E-01  1.013E+05 -3.548E-09 -2.379E-03  2.930E+02  9.429E+02
  0.000E+00  3.062E-01  1.013E+05 -3.502E-09 -2.066E-03  2.930E+02  9.603E+02
  0.000E+00  3.125E-01  1.013E+05 -3.444E-09 -1.748E-03  2.930E+02  9.784E+02
  0.000E+00  3.188E-01  1.013E+05 -3.361E-09 -1.439E-03  2.930E+02  9.972E+02
  0.000E+00  3.251E-01  1.013E+05 -3.272E-09 -1.148E-03  2.930E+02  1.017E+03
  0.000E+00  3.314E-01  1.013E+05 -3.183E-09 -8.605E-04  2.930E+02  1.037E+03
  0.000E+00  3.377E-01  1.013E+05 -3.082E-09 -5.741E-04  2.930E+02  1.058E+03
  0.000E+00  3.440E-01  1.013E+05 -2.955E-09 -2.946E-04  2.930E+02  1.079E+03
  0.000E+00  3.503E-01  1.013E+05 -2.810E-09 -3.616E-05  2.930E+02  1.100E+03
  0.000E+00  3.567E-01  1.013E+05 -2.659E-09  2.081E-04  2.930E+02  1.121E+03
  0.000E+00  3.630E-01  1.013E+05 -2.495E-09  4.438E-04  2.930E+02  1.142E+03
  0.000E+00  3.693E-01  1.013E+05 -2.317E-09  6.622E-04  2.930E+02  1.164E+03
  0.000E+00  3.756E-01  1.013E+05 -2.124E-09  8.651E-04  2.930E+02  1.185E+03
  0.000E+00  3.819E-01  1.013E+05 -1.921E-09  1.044E-03  2.930E+02  1.205E+03
  0.000E+00  3.882E-01  1.013E+05 -1.719E-09  1.205E-03  2.930E+02  1.225E+03
  0.000E+00  3.945E-01  1.013E+05 -1.504E-09  1.356E-03  2.930E+02  1.243E+03
  0.000E+00  4.008E-01  1.013E+05 -1.274E-09  1.478E-03  2.930E+02  1.260E+03
  0.000E+00  4.072E-01  1.013E+05 -1.052E-09  1.572E-03  2.930E+02  1.275E+03
  0.000E+00  4.135E-01  1.013E+05 -8.351E-10  1.653E-03  2.930E+02  1.288E+03
  0.000E+00  4.198E-01  1.013E+05 -6.193E-10  1.710E-03  2.930E+02  1.299E+03
  0.000E+00  4.261E-01  1.013E+05 -4.192E-10  1.743E-03  2.930E+02  1.307E+03
  0.000E+00  4.324E-01  1.013E+05 -2.288E-10  1.766E-03  2.930E+02  1.312E+03
  0.000E+00  4.387E-01  1.013E+05 -5.016E-11  1.765E-03  2.930E+02  1.314E+03
  0.000E+00  4.450E-01  1.013E+05  1.086E-10  1.752E-03  2.930E+02  1.313E+03
  0.000E+00  4.513E-01  1.013E+05  2.604E-10  1.732E-03  2.930E+02  1.310E+03
  0.000E+00  4.577E-01  1.013E+05  4.006E-10  1.692E-03  2.930E+02  1.303E+03
  0.000E+00  4.640E-01  1.013E+05  5.294E-10  1.651E-03  2.930E+02  1.295E+03
  0.000E+00  4.703E-01  1.013E+05  6.777E-10  1.613E-03  2.930E+02  1.285E+03
  0.000E+00  4.766E-01  1.013E+05  8.632E-10  1.566E-03  2.930E+02  1.274E+03
  0.000E+00  4.829E-01  1.013E+05  1.127E-09  1.523E-03  2.930E+02  1.264E+03
  0.000E+00  4.892E-01  1.013E+05  1.479E-09  1.487E-03  2.930E+02  1.254E+03
  0.000E+00  4.955E-01  1.013E+05  2.446E-09  1.585E-03  2.930E+02  1.247E+03
  0.000E+00  5.018E-01  1.013E+05  2.907E-09  6.047E-09  2.930E+02  1.243E+03
  0.000E+00  5.050E-01  1.013E+05  2.907E-09  6.047E-09  2.930E+02  1.243E+03
  6.203E-03  0.000E+00  1.012E+05  0.000E+00  0.000E+00  2.930E+02  2.930E+02
  6.203E-03  3.156E-03  1.012E+05  2.335E-08 -3.592E-03  2.930E+02  5.106E+02
  6.203E-03  9.469E-03  1.012E+05  1.912E-08 -3.847E-03  2.930E+02  7.925E+02
  6.203E-03  1.578E-02  1.012E+05  1.784E-08 -5.708E-03  2.930E+02  8.566E+02
  6.203E-03  2.209E-02  1.012E+05  1.561E-08 -7.546E-03  2.930E+02  8.688E+02
  6.203E-03  2.841E-02  1.013E+05  1.322E-08 -8.837E-03  2.930E+02  8.741E+02
  6.203E-03  3.472E-02  1.013E+05  1.107E-08 -9.825E-03  2.930E+02  8.783E+02
  6.203E-03  4.103E-02  1.013E+05  9.220E-09 -1.058E-02  2.930E+02  8.821E+02
  6.203E-03  4.734E-02  1.013E+05  7.722E-09 -1.116E-02  2.930E+02  8.857E+02
  6.203E-03  5.366E-02  1.013E+05  6.563E-09 -1.164E-02  2.930E+02  8.892E+02
  6.203E-03  5.997E-02  1.013E+05  5.676E-09 -1.208E-02  2.932E+02  8.926E+02
  6.203E-03  6.628E-02  1.013E+05  4.937E-09 -1.251E-02  2.937E+02  8.960E+02
  6.203E-03  7.259E-02  1.013E+05  4.238E-09 -1.294E-02  2.955E+02  8.992E+02
  6.203E-03  7.891E-02  1.013E+05  3.469E-09 -1.342E-02  3.014E+02  9.024E+02
  6.203E-03  8.522E-02  1.013E+05  2.072E-09 -1.407E-02  3.177E+02  9.055E+02
  6.203E-03  9.153E-02  1.013E+05  5.682E-10 -1.393E-02  3.544E+02  9.084E+02
  6.203E-03  9.784E-02  1.013E+05 -7.722E-10 -1.402E-02  3.177E+02  7.625E+02
  6.203E-03  1.042E-01  1.013E+05 -2.097E-09 -1.363E-02  3.014E+02  7.492E+02
  6.203E-03  1.105E-01  1.013E+05 -2.939E-09 -1.316E-02  2.955E+02  7.491E+02
  6.203E-03  1.168E-01  1.013E+05 -3.507E-09 -1.272E-02  2.937E+02  7.504E+02
  6.203E-03  1.231E-01  1.013E+05 -3.907E-09 -1.226E-02  2.932E+02  7.520E+02
  6.203E-03  1.294E-01  1.013E+05 -4.172E-09 -1.178E-02  2.930E+02  7.537E+02
  6.203E-03  1.357E-01  1.013E+05 -4.329E-09 -1.131E-02  2.930E+02  7.555E+02
  6.203E-03  1.420E-01  1.013E+05 -4.400E-09 -1.084E-02  2.930E+02  7.574E+02
  6.203E-03  1.483E-01  1.013E+05 -4.389E-09 -1.038E-02  2.930E+02  7.595E+02
  6.203E-03  1.547E-01  1.013E+05 -4.322E-09 -9.940E-03  2.930E+02  7.618E+02
  6.203E-03  1.610E-01  1.013E+05 -4.221E-09 -9.517E-03  2.930E+02  7.642E+02
  6.203E-03  1.673E-01  1.013E+05 -4.095E-09 -9.116E-03  2.930E+02  7.669E+02
  6.203E-03  1.736E-01  1.013E+05 -3.959E-09 -8.736E-03  2.930E+02  7.698E+02
  6.203E-03  1.799E-01  1.013E+05 -3.816E-09 -8.370E-03  2.930E+02  7.730E+02
  6.203E-03  1.862E-01  1.013E+05 -3.675E-09 -8.031E-03  2.930E+02  7.765E+02
  6.203E-03  1.925E-01  1.013E+05 -3.557E-09 -7.710E-03  2.930E+02  7.803E+02
  6.203E-03  1.988E-01  1.013E+05 -3.466E-09 -7.403E-03  2.930E+02  7.845E+02
  6.203E-03  2.052E-01  1.013E+05 -3.416E-09 -7.112E-03  2.930E+02  7.891E+02
  6.203E-03  2.115E-01  1.013E+05 -3.413E-09 -6.819E-03  2.930E+02  7.941E+02
  6.203E-03  2.178E-01  1.013E+05 -3.431E-09 -6.516E-03  2.930E+02  7.997E+02
  6.203E-03  2.241E-01  1.013E+05 -3.440E-09 -6.206E-03  2.930E+02  8.058E+02
  6.203E-03  2.304E-01  1.013E+05 -3.441E-09 -5.904E-03  2.930E+02  8.126E+02
  6.203E-03  2.367E-01  1.013E+05 -3.462E-09 -5.612E-03  2.930E+02  8.201E+02
  6.203E-03  2.430E-01  1.013E+05 -3.505E-09 -5.304E-03  2.930E+02  8.284E+02
  6.203E-03  2.493E-01  1.013E+05 -3.542E-09 -4.984E-03  2.930E+02  8.374E+02
  6.203E-03  2.557E-01  1.013E+05 -3.576E-09 -4.668E-03  2.930E+02  8.474E+02
  6.203E-03  2.620E-01  1.013E+05 -3.607E-09 -4.340E-03  2.930E+02  8.582E+02
  6.203E-03  2.683E-01  1.013E+05 -3.621E-09 -4.009E-03  2.930E+02  8.699E+02
  6.203E-03  2.746E-01  1.013E+05 -3.625E-09 -3.685E-03  2.930E+02  8.826E+02
  6.203E-03  2.809E-01  1.013E+05 -3.627E-09 -3.359E-03  2.930E+02  8.963E+02
  6.203E-03  2.872E-01  1.013E+05 -3.620E-09 -3.031E-03  2.930E+02  9.109E+02
  6.203E-03  2.935E-01  1.013E+05 -3.593E-09 -2.699E-03  2.930E+02  9.264E+02
  6.203E-03  2.998E-01  1.013E+05 -3.548E-09 -2.379E-03  2.930E+02  9.429E+02
  6.203E-03  3.062E-01  1.013E+05 -3.502E-09 -2.066E-03  2.930E+02  9.603E+02
  6.203E-03  3.125E-01  1.013E+05 -3.444E-09 -1.748E-03  2.930E+02  9.784E+02
  6.203E-03  3.188E-01  1.013E+05 -3.361E-09 -1.439E-03  2.930E+02  9.972E+02
  6.203E-03  3.251E-01  1.013E+05 -3.272E-09 -1.148E-03  2.930E+02  1.017E+03
  6.203E-03  3.314E-01  1.013E+05 -3.183E-09 -8.605E-04  2.930E+02  1.037E+03
  6.203E-03  3.377E-01  1.013E+05 -3.082E-09 -5.741E-04  2.930E+02  1.058E+03
  6.203E-03  3.440E-01  1.013E+05 -2.955E-09 -2.946E-04  2.930E+02  1.079E+03
  6.203E-03  3.503E-01  1.013E+05 -2.810E-09 -3.616E-05  2.930E+02  1.100E+03
  6.203E-03  3.567E-01  1.013E+05 -2.659E-09  2.081E-04  2.930E+02  1.121E+03
  6.203E-03  3.630E-01  1.013E+05 -2.495E-09  4.438E-04  2.930E+02  1.142E+03
  6.203E-03  3.693E-01  1.013E+05 -2.317E-09  6.622E-04  2.930E+02  1.164E+03
  6.203E-03  3.756E-01  1.013E+05 -2.124E-09  8.651E-04  2.930E+02  1.185E+03
  6.203E-03  3.819E-01  1.013E+05 -1.921E-09  1.044E-03  2.930E+02  1.205E+03
  6.203E-03  3.882E-01  1.013E+05 -1.719E-09  1.205E-03  2.930E+02  1.225E+03
  6.203E-03  3.945E-01  1.013E+05 -1.504E-09  1.356E-03  2.930E+02  1.243E+03
  6.203E-03  4.008E-01  1.013E+05 -1.274E-09  1.478E-03  2.930E+02  1.260E+03
  6.203E-03  4.072E-01  1.013E+05 -1.052E-09  1.572E-03  2.930E+02  1.275E+03
  6.203E-03  4.135E-01  1.013E+05 -8.351E-10  1.653E-03  2.930E+02  1.288E+03
  6.203E-03  4.198E-01  1.013E+05 -6.193E-10  1.710E-03  2.930E+02  1.299E+03
  6.203E-03  4.261E-01  1.013E+05 -4.192E-10  1.743E-03  2.930E+02  1.307E+03
  6.203E-03  4.324E-01  1.013E+05 -2.288E-10  1.766E-03  2.930E+02  1.312E+03
  6.203E-03  4.387E-01  1.013E+05 -5.016E-11  1.765E-03  2.930E+02  1.314E+03
  6.203E-03  4.450E-01  1.013E+05  1.086E-10  1.752E-03  2.930E+02  1.313E+03
  6.203E-03  4.513E-01  1.013E+05  2.604E-10  1.732E-03  2.930E+02  1.310E+03
  6.203E-03  4.577E-01  1.013E+05  4.006E-10  1.692E-03  2.930E+02  1.303E+03
  6.203E-03  4.640E-01  1.013E+05  5.294E-10  1.651E-03  2.930E+02  1.295E+03
  6.203E-03  4.703E-01  1.013E+05  6.777E-10  1.613E-03  2.930E+02  1.285E+03
  6.203E-03  4.766E-01  1.013E+05  8.632E-10  1.566E-03  2.930E+02  1.274E+03
  6.203E-03  4.829E-01  1.013E+05  1.127E-09  1.523E-03  2.930E+02  1.264E+03
  6.203E-03  4.892E-01  1.013E+05  1.479E-09  1.487E-03  2.930E+02  1.254E+03
  6.203E-03  4.955E-01  1.013E+05  2.446E-09  1.585E-03  2.930E+02  1.247E+03
  6.203E-03  5.018E-01  1.013E+05  2.907E-09  6.047E-09  2.930E+02  1.243E+03
  6.203E-03  5.050E-01  1.013E+05  0.000E+00  6.047E-09  2.930E+02  1.243E+03
  1.861E-02  0.000E+00  1.012E+05  0.000E+00  0.000E+00  2.930E+02  2.930E+02
  1.861E-02  3.156E-03  1.012E+05  3.414E-08 -3.592E-03  2.930E+02  5.106E+02
  1.861E-02  9.469E-03  1.012E+05  2.934E-08 -3.847E-03  2.930E+02  7.925E+02
  1.861E-02  1.578E-02  1.012E+05  2.732E-08 -5.708E-03  2.930E+02  8.566E+02
  1.861E-02  2.209E-02  1.012E+05  2.420E-08 -7.546E-03  2.930E+02  8.688E+02
  1.861E-02  2.841E-02  1.013E+05  2.085E-08 -8.838E-03  2.930E+02  8.741E+02
  1.861E-02  3.472E-02  1.013E+05  1.773E-08 -9.825E-03  2.930E+02  8.783E+02
  1.861E-02  4.103E-02  1.013E+05  1.498E-08 -1.058E-02  2.930E+02  8.821E+02
  1.861E-02  4.734E-02  1.013E+05  1.267E-08 -1.116E-02  2.930E+02  8.857E+02
  1.861E-02  5.366E-02  1.013E+05  1.077E-08 -1.164E-02  2.930E+02  8.892E+02
  1.861E-02  5.997E-02  1.013E+05  9.231E-09 -1.208E-02  2.932E+02  8.926E+02
  1.861E-02  6.628E-02  1.013E+05  7.885E-09 -1.251E-02  2.937E+02  8.960E+02
  1.861E-02  7.259E-02  1.013E+05  6.595E-09 -1.294E-02  2.955E+02  8.992E+02
  1.861E-02  7.891E-02  1.013E+05  5.221E-09 -1.342E-02  3.014E+02  9.024E+02
  1.861E-02  8.522E-02  1.013E+05  3.162E-09 -1.407E-02  3.177E+02  9.055E+02
  1.861E-02  9.153E-02  1.013E+05  9.905E-10 -1.393E-02  3.544E+02  9.084E+02
  1.861E-02  9.784E-02  1.013E+05 -9.844E-10 -1.402E-02  3.177E+02  7.625E+02
  1.861E-02  1.042E-01  1.013E+05 -2.892E-09 -1.363E-02  3.014E+02  7.492E+02
  1.861E-02  1.105E-01  1.013E+05 -4.214E-09 -1.316E-02  2.955E+02  7.491E+02
  1.861E-02  1.168E-01  1.013E+05 -5.165E-09 -1.272E-02  2.937E+02  7.504E+02
  1.861E-02  1.231E-01  1.013E+05 -5.862E-09 -1.226E-02  2.932E+02  7.520E+02
  1.861E-02  1.294E-01  1.013E+05 -6.346E-09 -1.178E-02  2.930E+02  7.537E+02
  1.861E-02  1.357E-01  1.013E+05 -6.653E-09 -1.131E-02  2.930E+02  7.555E+02
  1.861E-02  1.420E-01  1.013E+05 -6.819E-09 -1.084E-02  2.930E+02  7.574E+02
  1.861E-02  1.483E-01  1.013E+05 -6.853E-09 -1.038E-02  2.930E+02  7.595E+02
  1.861E-02  1.547E-01  1.013E+05 -6.793E-09 -9.940E-03  2.930E+02  7.618E+02
  1.861E-02  1.610E-01  1.013E+05 -6.671E-09 -9.517E-03  2.930E+02  7.642E+02
  1.861E-02  1.673E-01  1.013E+05 -6.502E-09 -9.116E-03  2.930E+02  7.669E+02
  1.861E-02  1.736E-01  1.013E+05 -6.313E-09 -8.736E-03  2.930E+02  7.698E+02
  1.861E-02  1.799E-01  1.013E+05 -6.110E-09 -8.370E-03  2.930E+02  7.730E+02
  1.861E-02  1.862E-01  1.013E+05 -5.908E-09 -8.031E-03  2.930E+02  7.765E+02
  1.861E-02  1.925E-01  1.013E+05 -5.734E-09 -7.710E-03  2.930E+02  7.803E+02
  1.861E-02  1.988E-01  1.013E+05 -5.596E-09 -7.403E-03  2.930E+02  7.845E+02
  1.861E-02  2.052E-01  1.013E+05 -5.510E-09 -7.112E-03  2.930E+02  7.891E+02
  1.861E-02  2.115E-01  1.013E+05 -5.482E-09 -6.819E-03  2.930E+02  7.941E+02
  1.861E-02  2.178E-01  1.013E+05 -5.484E-09 -6.516E-03  2.930E+02  7.997E+02
  1.861E-02  2.241E-01  1.013E+05 -5.481E-09 -6.206E-03  2.930E+02  8.058E+02
  1.861E-02  2.304E-01  1.013E+05 -5.476E-09 -5.904E-03  2.930E+02  8.126E+02
  1.861E-02  2.367E-01  1.013E+05 -5.497E-09 -5.612E-03  2.930E+02  8.201E+02
  1.861E-02  2.430E-01  1.013E+05 -5.548E-09 -5.304E-03  2.930E+02  8.284E+02
  1.861E-02  2.493E-01  1.013E+05 -5.597E-09 -4.984E-03  2.930E+02  8.374E+02
  1.861E-02  2.557E-01  1.013E+05 -5.642E-09 -4.668E-03  2.930E+02  8.474E+02
  1.861E-02  2.620E-01  1.013E+05 -5.684E-09 -4.340E-03  2.930E+02  8.582E+02
  1.861E-02  2.683E-01  1.013E+05 -5.704E-09 -4.009E-03  2.930E+02  8.699E+02
  1.861E-02  2.746E-01  1.013E+05 -5.712E-09 -3.685E-03  2.930E+02  8.826E+02
  1.861E-02  2.809E-01  1.013E+05 -5.712E-09 -3.359E-03  2.930E+02  8.963E+02
  1.861E-02  2.872E-01  1.013E+05 -5.699E-09 -3.031E-03  2.930E+02  9.109E+02
  1.861E-02  2.935E-01  1.013E+05 -5.659E-09 -2.699E-03  2.930E+02  9.264E+02
  1.861E-02  2.998E-01  1.013E+05 -5.595E-09 -2.379E-03  2.930E+02  9.429E+02
  1.861E-02  3.062E-01  1.013E+05 -5.522E-09 -2.066E-03  2.930E+02  9.603E+02
  1.861E-02  3.125E-01  1.013E+05 -5.430E-09 -1.748E-03  2.930E+02  9.784E+02
  1.861E-02  3.188E-01  1.013E+05 -5.306E-09 -1.439E-03  2.930E+02  9.972E+02
  1.861E-02  3.251E-01  1.013E+05 -5.167E-09 -1.148E-03  2.930E+02  1.017E+03
  1.861E-02  3.314E-01  1.013E+05 -5.022E-09 -8.605E-04  2.930E+02  1.037E+03
  1.861E-02  3.377E-01  1.013E+05 -4.856E-09 -5.741E-04  2.930E+02  1.058E+03
  1.861E-02  3.440E-01  1.013E+05 -4.656E-09 -2.946E-04  2.930E+02  1.079E+03
  1.861E-02  3.503E-01  1.013E+05 -4.428E-09 -3.616E-05  2.930E+02  1.100E+03
  1.861E-02  3.567E-01  1.013E+05 -4.189E-09  2.081E-04  2.930E+02  1.121E+03
  1.861E-02  3.630E-01  1.013E+05 -3.931E-09  4.438E-04  2.930E+02  1.142E+03
  1.861E-02  3.693E-01  1.013E+05 -3.650E-09  6.622E-04  2.930E+02  1.164E+03
  1.861E-02  3.756E-01  1.013E+05 -3.351E-09  8.651E-04  2.930E+02  1.185E+03
  1.861E-02  3.819E-01  1.013E+05 -3.036E-09  1.044E-03  2.930E+02  1.205E+03
  1.861E-02  3.882E-01  1.013E+05 -2.718E-09  1.205E-03  2.930E+02  1.225E+03
  1.861E-02  3.945E-01  1.013E+05 -2.383E-09  1.356E-03  2.930E+02  1.243E+03
  1.861E-02  4.008E-01  1.013E+05 -2.030E-09  1.478E-03  2.930E+02  1.260E+03
  1.861E-02  4.072E-01  1.013E+05 -1.685E-09  1.572E-03  2.930E+02  1.275E+03
  1.861E-02  4.135E-01  1.013E+05 -1.347E-09  1.653E-03  2.930E+02  1.288E+03
  1.861E-02  4.198E-01  1.013E+05 -1.012E-09  1.710E-03  2.930E+02  1.299E+03
  1.861E-02  4.261E-01  1.013E+05 -6.976E-10  1.743E-03  2.930E+02  1.307E+03
  1.861E-02  4.324E-01  1.013E+05 -3.987E-10  1.766E-03  2.930E+02  1.312E+03
  1.861E-02  4.387E-01  1.013E+05 -1.167E-10  1.765E-03  2.930E+02  1.314E+03
  1.861E-02  4.450E-01  1.013E+05  1.383E-10  1.752E-03  2.930E+02  1.313E+03
  1.861E-02  4.513E-01  1.013E+05  3.808E-10  1.732E-03  2.930E+02  1.310E+03
  1.861E-02  4.577E-01  1.013E+05  6.081E-10  1.692E-03  2.930E+02  1.303E+03
  1.861E-02  4.640E-01  1.013E+05  8.205E-10  1.651E-03  2.930E+02  1.295E+03
  1.861E-02  4.703E-01  1.013E+05  1.053E-09  1.613E-03  2.930E+02  1.285E+03
  1.861E-02  4.766E-01  1.013E+05  1.325E-09  1.566E-03  2.930E+02  1.274E+03
  1.861E-02  4.829E-01  1.013E+05  1.674E-09  1.523E-03  2.930E+02  1.264E+03
  1.861E-02  4.892E-01  1.013E+05  2.103E-09  1.487E-03  2.930E+02  1.254E+03
  1.861E-02  4.955E-01  1.013E+05  3.085E-09  1.585E-03  2.930E+02  1.247E+03
  1.861E-02  5.018E-01  1.013E+05  3.594E-09 -4.423E-09  2.930E+02  1.243E+03
  1.861E-02  5.050E-01  1.013E+05  0.000E+00 -4.423E-09  2.930E+02  1.243E+03
  3.102E-02  0.000E+00  1.012E+05  0.000E+00  0.000E+00  2.930E+02  2.930E+02
  3.102E-02  3.156E-03  1.012E+05  1.811E-08 -3.592E-03  2.930E+02  5.106E+02
  3.102E-02  9.469E-03  1.012E+05  1.720E-08 -3.847E-03  2.930E+02  7.925E+02
  3.102E-02  1.578E-02  1.012E+05  1.602E-08 -5.708E-03  2.930E+02  8.566E+02
  3.102E-02  2.209E-02  1.012E+05  1.458E-08 -7.546E-03  2.930E+02  8.688E+02
  3.102E-02  2.841E-02  1.013E+05  1.302E-08 -8.838E-03  2.930E+02  8.741E+02
  3.102E-02  3.472E-02  1.013E+05  1.146E-08 -9.825E-03  2.930E+02  8.783E+02
  3.102E-02  4.103E-02  1.013E+05  9.965E-09 -1.058E-02  2.930E+02  8.821E+02
  3.102E-02  4.734E-02  1.013E+05  8.592E-09 -1.116E-02  2.930E+02  8.857E+02
  3.102E-02  5.366E-02  1.013E+05  7.351E-09 -1.164E-02  2.930E+02  8.892E+02
  3.102E-02  5.997E-02  1.013E+05  6.227E-09 -1.208E-02  2.932E+02  8.926E+02
  3.102E-02  6.628E-02  1.013E+05  5.182E-09 -1.251E-02  2.937E+02  8.960E+02
  3.102E-02  7.259E-02  1.013E+05  4.166E-09 -1.294E-02  2.955E+02  8.992E+02
  3.102E-02  7.891E-02  1.013E+05  3.133E-09 -1.342E-02  3.014E+02  9.024E+02
  3.102E-02  8.522E-02  1.013E+05  2.027E-09 -1.407E-02  3.177E+02  9.055E+02
  3.102E-02  9.153E-02  1.013E+05  9.241E-10 -1.393E-02  3.544E+02  9.084E+02
  3.102E-02  9.784E-02  1.013E+05 -1.192E-10 -1.402E-02  3.177E+02  7.625E+02
  3.102E-02  1.042E-01  1.013E+05 -1.078E-09 -1.363E-02  3.014E+02  7.492E+02
  3.102E-02  1.105E-01  1.013E+05 -1.880E-09 -1.316E-02  2.955E+02  7.491E+02
  3.102E-02  1.168E-01  1.013E+05 -2.528E-09 -1.272E-02  2.937E+02  7.504E+02
  3.102E-02  1.231E-01  1.013E+05 -3.033E-09 -1.226E-02  2.932E+02  7.520E+02
  3.102E-02  1.294E-01  1.013E+05 -3.412E-09 -1.178E-02  2.930E+02  7.537E+02
  3.102E-02  1.357E-01  1.013E+05 -3.678E-09 -1.131E-02  2.930E+02  7.555E+02
  3.102E-02  1.420E-01  1.013E+05 -3.849E-09 -1.084E-02  2.930E+02  7.574E+02
  3.102E-02  1.483E-01  1.013E+05 -3.939E-09 -1.038E-02  2.930E+02  7.595E+02
  3.102E-02  1.547E-01  1.013E+05 -3.963E-09 -9.940E-03  2.930E+02  7.618E+02
  3.102E-02  1.610E-01  1.013E+05 -3.941E-09 -9.517E-03  2.930E+02  7.642E+02
  3.102E-02  1.673E-01  1.013E+05 -3.882E-09 -9.116E-03  2.930E+02  7.669E+02
  3.102E-02  1.736E-01  1.013E+05 -3.802E-09 -8.736E-03  2.930E+02  7.698E+02
  3.102E-02  1.799E-01  1.013E+05 -3.710E-09 -8.370E-03  2.930E+02  7.730E+02
  3.102E-02  1.862E-01  1.013E+05 -3.616E-09 -8.031E-03  2.930E+02  7.765E+02
  3.102E-02  1.925E-01  1.013E+05 -3.528E-09 -7.710E-03  2.930E+02  7.803E+02
  3.102E-02  1.988E-01  1.013E+05 -3.453E-09 -7.403E-03  2.930E+02  7.845E+02
  3.102E-02  2.052E-01  1.013E+05 -3.395E-09 -7.112E-03  2.930E+02  7.891E+02
  3.102E-02  2.115E-01  1.013E+05 -3.357E-09 -6.819E-03  2.930E+02  7.941E+02
  3.102E-02  2.178E-01  1.013E+05 -3.333E-09 -6.516E-03  2.930E+02  7.997E+02
  3.102E-02  2.241E-01  1.013E+05 -3.319E-09 -6.206E-03  2.930E+02  8.058E+02
  3.102E-02  2.304E-01  1.013E+05 -3.317E-09 -5.904E-03  2.930E+02  8.126E+02
  3.102E-02  2.367E-01  1.013E+05 -3.327E-09 -5.612E-03  2.930E+02  8.201E+02
  3.102E-02  2.430E-01  1.013E+05 -3.349E-09 -5.304E-03  2.930E+02  8.284E+02
  3.102E-02  2.493E-01  1.013E+05 -3.377E-09 -4.984E-03  2.930E+02  8.374E+02
  3.102E-02  2.557E-01  1.013E+05 -3.405E-09 -4.668E-03  2.930E+02  8.474E+02
  3.102E-02  2.620E-01  1.013E+05 -3.434E-09 -4.340E-03  2.930E+02  8.582E+02
  3.102E-02  2.683E-01  1.013E+05 -3.456E-09 -4.009E-03  2.930E+02  8.699E+02
  3.102E-02  2.746E-01  1.013E+05 -3.474E-09 -3.685E-03  2.930E+02  8.826E+02
  3.102E-02  2.809E-01  1.013E+05 -3.481E-09 -3.359E-03  2.930E+02  8.963E+02
  3.102E-02  2.872E-01  1.013E+05 -3.481E-09 -3.031E-03  2.930E+02  9.109E+02
  3.102E-02  2.935E-01  1.013E+05 -3.468E-09 -2.699E-03  2.930E+02  9.264E+02
  3.102E-02  2.998E-01  1.013E+05 -3.443E-09 -2.379E-03  2.930E+02  9.429E+02
  3.102E-02  3.062E-01  1.013E+05 -3.405E-09 -2.066E-03  2.930E+02  9.603E+02
  3.102E-02  3.125E-01  1.013E+05 -3.355E-09 -1.748E-03  2.930E+02  9.784E+02
  3.102E-02  3.188E-01  1.013E+05 -3.290E-09 -1.439E-03  2.930E+02  9.972E+02
  3.102E-02  3.251E-01  1.013E+05 -3.211E-09 -1.148E-03  2.930E+02  1.017E+03
  3.102E-02  3.314E-01  1.013E+05 -3.120E-09 -8.605E-04  2.930E+02  1.037E+03
  3.102E-02  3.377E-01  1.013E+05 -3.013E-09 -5.741E-04  2.930E+02  1.058E+03
  3.102E-02  3.440E-01  1.013E+05 -2.893E-09 -2.946E-04  2.930E+02  1.079E+03
  3.102E-02  3.503E-01  1.013E+05 -2.757E-09 -3.616E-05  2.930E+02  1.100E+03
  3.102E-02  3.567E-01  1.013E+05 -2.610E-09  2.081E-04  2.930E+02  1.121E+03
  3.102E-02  3.630E-01  1.013E+05 -2.451E-09  4.438E-04  2.930E+02  1.142E+03
  3.102E-02  3.693E-01  1.013E+05 -2.281E-09  6.622E-04  2.930E+02  1.164E+03
  3.102E-02  3.756E-01  1.013E+05 -2.102E-09  8.651E-04  2.930E+02  1.185E+03
  3.102E-02  3.819E-01  1.013E+05 -1.914E-09  1.044E-03  2.930E+02  1.205E+03
  3.102E-02  3.882E-01  1.013E+05 -1.719E-09  1.205E-03  2.930E+02  1.225E+03
  3.102E-02  3.945E-01  1.013E+05 -1.518E-09  1.356E-03  2.930E+02  1.243E+03
  3.102E-02  4.008E-01  1.013E+05 -1.313E-09  1.478E-03  2.930E+02  1.260E+03
  3.102E-02  4.072E-01  1.013E+05 -1.106E-09  1.572E-03  2.930E+02  1.275E+03
  3.102E-02  4.135E-01  1.013E+05 -9.027E-10  1.653E-03  2.930E+02  1.288E+03
  3.102E-02  4.198E-01  1.013E+05 -7.016E-10  1.710E-03  2.930E+02  1.299E+03
  3.102E-02  4.261E-01  1.013E+05 -5.073E-10  1.743E-03  2.930E+02  1.307E+03
  3.102E-02  4.324E-01  1.013E+05 -3.216E-10  1.766E-03  2.930E+02  1.312E+03
  3.102E-02  4.387E-01  1.013E+05 -1.436E-10  1.765E-03  2.930E+02  1.314E+03
  3.102E-02  4.450E-01  1.013E+05  2.412E-11  1.752E-03  2.930E+02  1.313E+03
  3.102E-02  4.513E-01  1.013E+05  1.828E-10  1.732E-03  2.930E+02  1.310E+03
  3.102E-02  4.577E-01  1.013E+05  3.343E-10  1.692E-03  2.930E+02  1.303E+03
  3.102E-02  4.640E-01  1.013E+05  4.783E-10  1.651E-03  2.930E+02  1.295E+03
  3.102E-02  4.703E-01  1.013E+05  6.180E-10  1.613E-03  2.930E+02  1.285E+03
  3.102E-02  4.766E-01  1.013E+05  7.536E-10  1.566E-03  2.930E+02  1.274E+03
  3.102E-02  4.829E-01  1.013E+05  8.773E-10  1.523E-03  2.930E+02  1.264E+03
  3.102E-02  4.892E-01  1.013E+05  9.794E-10  1.487E-03  2.930E+02  1.254E+03
  3.102E-02  4.955E-01  1.013E+05  9.763E-10  1.585E-03  2.930E+02  1.247E+03
  3.102E-02  5.018E-01  1.013E+05  1.032E-09 -7.034E-09  2.930E+02  1.243E+03
  3.102E-02  5.050E-01  1.013E+05  0.000E+00 -7.034E-09  2.930E+02  1.243E+03
  4.342E-02  0.000E+00  1.012E+05  0.000E+00  0.000E+00  2.930E+02  2.930E+02
  4.342E-02  3.156E-03  1.012E+05  1.049E-08 -3.592E-03  2.930E+02  5.106E+02
  4.342E-02  9.469E-03  1.012E+05  1.013E-08 -3.847E-03  2.930E+02  7.925E+02
  4.342E-02  1.578E-02  1.012E+05  9.525E-09 -5.708E-03  2.930E+02  8.566E+02
  4.342E-02  2.209E-02  1.012E+05  8.767E-09 -7.546E-03  2.930E+02  8.688E+02
  4.342E-02  2.841E-02  1.013E+05  7.924E-09 -8.838E-03  2.930E+02  8.741E+02
  4.342E-02  3.472E-02  1.013E+05  7.049E-09 -9.825E-03  2.930E+02  8.783E+02
  4.342E-02  4.103E-02  1.013E+05  6.189E-09 -1.058E-02  2.930E+02  8.821E+02
  4.342E-02  4.734E-02  1.013E+05  5.371E-09 -1.116E-02  2.930E+02  8.857E+02
  4.342E-02  5.366E-02  1.013E+05  4.606E-09 -1.164E-02  2.930E+02  8.892E+02
  4.342E-02  5.997E-02  1.013E+05  3.894E-09 -1.208E-02  2.932E+02  8.926E+02
  4.342E-02  6.628E-02  1.013E+05  3.222E-09 -1.251E-02  2.937E+02  8.960E+02
  4.342E-02  7.259E-02  1.013E+05  2.570E-09 -1.294E-02  2.955E+02  8.992E+02
  4.342E-02  7.891E-02  1.013E+05  1.921E-09 -1.342E-02  3.014E+02  9.024E+02
  4.342E-02  8.522E-02  1.013E+05  1.259E-09 -1.407E-02  3.177E+02  9.055E+02
  4.342E-02  9.153E-02  1.013E+05  6.145E-10 -1.393E-02  3.544E+02  9.084E+02
  4.342E-02  9.784E-02  1.013E+05  6.575E-12 -1.402E-02  3.177E+02  7.625E+02
  4.342E-02  1.042E-01  1.013E+05 -5.525E-10 -1.363E-02  3.014E+02  7.492E+02
  4.342E-02  1.105E-01  1.013E+05 -1.035E-09 -1.316E-02  2.955E+02  7.491E+02
  4.342E-02  1.168E-01  1.013E+05 -1.436E-09 -1.272E-02  2.937E+02  7.504E+02
  4.342E-02  1.231E-01  1.013E+05 -1.757E-09 -1.226E-02  2.932E+02  7.520E+02
  4.342E-02  1.294E-01  1.013E+05 -2.005E-09 -1.178E-02  2.930E+02  7.537E+02
  4.342E-02  1.357E-01  1.013E+05 -2.184E-09 -1.131E-02  2.930E+02  7.555E+02
  4.342E-02  1.420E-01  1.013E+05 -2.305E-09 -1.084E-02  2.930E+02  7.574E+02
  4.342E-02  1.483E-01  1.013E+05 -2.376E-09 -1.038E-02  2.930E+02  7.595E+02
  4.342E-02  1.547E-01  1.013E+05 -2.405E-09 -9.940E-03  2.930E+02  7.618E+02
  4.342E-02  1.610E-01  1.013E+05 -2.405E-09 -9.517E-03  2.930E+02  7.642E+02
  4.342E-02  1.673E-01  1.013E+05 -2.381E-09 -9.116E-03  2.930E+02  7.669E+02
  4.342E-02  1.736E-01  1.013E+05 -2.341E-09 -8.736E-03  2.930E+02  7.698E+02
  4.342E-02  1.799E-01  1.013E+05 -2.293E-09 -8.370E-03  2.930E+02  7.730E+02
  4.342E-02  1.862E-01  1.013E+05 -2.241E-09 -8.031E-03  2.930E+02  7.765E+02
  4.342E-02  1.925E-01  1.013E+05 -2.189E-09 -7.710E-03  2.930E+02  7.803E+02
  4.342E-02  1.988E-01  1.013E+05 -2.143E-09 -7.403E-03  2.930E+02  7.845E+02
  4.342E-02  2.052E-01  1.013E+05 -2.103E-09 -7.112E-03  2.930E+02  7.891E+02
  4.342E-02  2.115E-01  1.013E+05 -2.073E-09 -6.819E-03  2.930E+02  7.941E+02
  4.342E-02  2.178E-01  1.013E+05 -2.052E-09 -6.516E-03  2.930E+02  7.997E+02
  4.342E-02  2.241E-01  1.013E+05 -2.038E-09 -6.206E-03  2.930E+02  8.058E+02
  4.342E-02  2.304E-01  1.013E+05 -2.035E-09 -5.904E-03  2.930E+02  8.126E+02
  4.342E-02  2.367E-01  1.013E+05 -2.038E-09 -5.612E-03  2.930E+02  8.201E+02
  4.342E-02  2.430E-01  1.013E+05 -2.049E-09 -5.304E-03  2.930E+02  8.284E+02
  4.342E-02  2.493E-01  1.013E+05 -2.065E-09 -4.984E-03  2.930E+02  8.374E+02
  4.342E-02  2.557E-01  1.013E+05 -2.081E-09 -4.668E-03  2.930E+02  8.474E+02
  4.342E-02  2.620E-01  1.013E+05 -2.099E-09 -4.340E-03  2.930E+02  8.582E+02
  4.342E-02  2.683E-01  1.013E+05 -2.114E-09 -4.009E-03  2.930E+02  8.699E+02
  4.342E-02  2.746E-01  1.013E+05 -2.127E-09 -3.685E-03  2.930E+02  8.826E+02
  4.342E-02  2.809E-01  1.013E+05 -2.133E-09 -3.359E-03  2.930E+02  8.963E+02
  4.342E-02  2.872E-01  1.013E+05 -2.136E-09 -3.031E-03  2.930E+02  9.109E+02
  4.342E-02  2.935E-01  1.013E+05 -2.131E-09 -2.699E-03  2.930E+02  9.264E+02
  4.342E-02  2.998E-01  1.013E+05 -2.120E-09 -2.379E-03  2.930E+02  9.429E+02
  4.342E-02  3.062E-01  1.013E+05 -2.101E-09 -2.066E-03  2.930E+02  9.603E+02
  4.342E-02  3.125E-01  1.013E+05 -2.074E-09 -1.748E-03  2.930E+02  9.784E+02
  4.342E-02  3.188E-01  1.013E+05 -2.037E-09 -1.439E-03  2.930E+02  9.972E+02
  4.342E-02  3.251E-01  1.013E+05 -1.991E-09 -1.148E-03  2.930E+02  1.017E+03
  4.342E-02  3.314E-01  1.013E+05 -1.936E-09 -8.605E-04  2.930E+02  1.037E+03
  4.342E-02  3.377E-01  1.013E+05 -1.872E-09 -5.741E-04  2.930E+02  1.058E+03