VARIABLES="XP","YP","P","U","V","TS","TF"
ZONE T="Zone 001"I=    82 J=    12 F=POINT
  0.000E+00  0.000E+00  1.012E+05  7.940E-07 -7.154E-04  2.930E+02  3.461E+02
  0.000E+00  3.156E-03  1.012E+05  7.940E-07 -7.154E-04  2.930E+02  3.461E+02
  0.000E+00  9.469E-03  1.012E+05  5.552E-07  3.088E-03  2.930E+02  4.512E+02
  0.000E+00  1.578E-02  1.012E+05  4.358E-07  3.960E-03  2.930E+02  5.526E+02
  0.000E+00  2.209E-02  1.012E+05  1.703E-07  4.560E-03  2.931E+02  6.555E+02
  0.000E+00  2.841E-02  1.012E+05  1.009E-07  4.729E-03  2.931E+02  7.633E+02
  0.000E+00  3.472E-02  1.012E+05  3.621E-08  4.681E-03  2.934E+02  8.772E+02
  0.000E+00  4.103E-02  1.012E+05 -3.771E-09  4.480E-03  2.939E+02  9.976E+02
  0.000E+00  4.734E-02  1.012E+05 -3.806E-08  4.172E-03  2.950E+02  1.124E+03
  0.000E+00  5.366E-02  1.012E+05 -6.644E-08  3.790E-03  2.972E+02  1.254E+03
  0.000E+00  5.997E-02  1.012E+05 -8.276E-08  3.363E-03  3.017E+02  1.387E+03
  0.000E+00  6.628E-02  1.013E+05 -1.111E-07  2.900E-03  3.097E+02  1.521E+03
  0.000E+00  7.259E-02  1.013E+05 -1.343E-07  2.426E-03  3.234E+02  1.657E+03
  0.000E+00  7.891E-02  1.013E+05 -1.618E-07  2.021E-03  3.451E+02  1.811E+03
  0.000E+00  8.522E-02  1.013E+05 -1.929E-07  1.780E-03  3.770E+02  2.045E+03
  0.000E+00  9.153E-02  1.013E+05 -2.333E-07  3.966E-03  4.209E+02  2.622E+03
  0.000E+00  9.784E-02  1.013E+05 -2.548E-07  3.667E-03  3.770E+02  2.646E+03
  0.000E+00  1.042E-01  1.013E+05 -2.334E-07  4.318E-03  3.451E+02  2.654E+03
  0.000E+00  1.105E-01  1.013E+05 -1.814E-07  4.610E-03  3.234E+02  2.649E+03
  0.000E+00  1.168E-01  1.013E+05 -1.221E-07  4.563E-03  3.097E+02  2.633E+03
  0.000E+00  1.231E-01  1.013E+05 -6.724E-08  4.292E-03  3.017E+02  2.607E+03
  0.000E+00  1.294E-01  1.013E+05 -2.367E-08  3.885E-03  2.972E+02  2.570E+03
  0.000E+00  1.357E-01  1.013E+05 -1.965E-10  3.418E-03  2.950E+02  2.525E+03
  0.000E+00  1.420E-01  1.013E+05  1.277E-08  2.951E-03  2.939E+02  2.471E+03
  0.000E+00  1.483E-01  1.013E+05  1.301E-08  2.507E-03  2.934E+02  2.411E+03
  0.000E+00  1.547E-01  1.013E+05  1.210E-08  2.104E-03  2.931E+02  2.348E+03
  0.000E+00  1.610E-01  1.013E+05  9.839E-09  1.741E-03  2.931E+02  2.281E+03
  0.000E+00  1.673E-01  1.013E+05  7.711E-09  1.425E-03  2.930E+02  2.215E+03
  0.000E+00  1.736E-01  1.013E+05  5.882E-09  1.167E-03  2.930E+02  2.149E+03
  0.000E+00  1.799E-01  1.013E+05  4.454E-09  9.430E-04  2.930E+02  2.087E+03
  0.000E+00  1.862E-01  1.013E+05  3.370E-09  7.445E-04  2.930E+02  2.029E+03
  0.000E+00  1.925E-01  1.013E+05  2.560E-09  5.811E-04  2.930E+02  1.975E+03
  0.000E+00  1.988E-01  1.013E+05  1.971E-09  4.518E-04  2.930E+02  1.927E+03
  0.000E+00  2.052E-01  1.013E+05  1.557E-09  3.457E-04  2.930E+02  1.884E+03
  0.000E+00  2.115E-01  1.013E+05  1.274E-09  2.504E-04  2.930E+02  1.846E+03
  0.000E+00  2.178E-01  1.013E+05  1.080E-09  1.662E-04  2.930E+02  1.813E+03
  0.000E+00  2.241E-01  1.013E+05  9.493E-10  1.027E-04  2.930E+02  1.783E+03
  0.000E+00  2.304E-01  1.013E+05  8.774E-10  5.930E-05  2.930E+02  1.758E+03
  0.000E+00  2.367E-01  1.013E+05  8.473E-10  1.719E-05  2.930E+02  1.737E+03
  0.000E+00  2.430E-01  1.013E+05  8.249E-10 -1.716E-05  2.930E+02  1.718E+03
  0.000E+00  2.493E-01  1.013E+05  7.840E-10 -3.847E-05  2.930E+02  1.702E+03
  0.000E+00  2.557E-01  1.013E+05  6.822E-10 -6.035E-05  2.930E+02  1.688E+03
  0.000E+00  2.620E-01  1.013E+05  4.435E-10 -8.168E-05  2.930E+02  1.676E+03
  0.000E+00  2.683E-01  1.013E+05 -8.602E-12 -9.401E-05  2.930E+02  1.666E+03
  0.000E+00  2.746E-01  1.013E+05 -8.063E-10 -9.781E-05  2.930E+02  1.657E+03
  0.000E+00  2.809E-01  1.013E+05 -1.914E-09 -1.070E-04  2.930E+02  1.649E+03
  0.000E+00  2.872E-01  1.013E+05 -4.013E-09 -1.136E-04  2.930E+02  1.642E+03
  0.000E+00  2.935E-01  1.013E+05 -6.005E-09 -1.127E-04  2.930E+02  1.636E+03
  0.000E+00  2.998E-01  1.013E+05 -1.337E-08 -1.144E-04  2.930E+02  1.630E+03
  0.000E+00  3.062E-01  1.013E+05 -3.170E-08 -1.073E-04  2.930E+02  1.625E+03
  0.000E+00  3.125E-01  1.013E+05 -7.694E-08 -9.868E-05  2.930E+02  1.621E+03
  0.000E+00  3.188E-01  1.013E+05 -2.712E-07 -1.001E-04  2.930E+02  1.616E+03
  0.000E+00  3.251E-01  1.013E+05 -4.937E-07 -1.074E-04  2.930E+02  1.612E+03
  0.000E+00  3.314E-01  1.013E+05 -2.752E-07 -1.063E-04  2.930E+02  1.609E+03
  0.000E+00  3.377E-01  1.013E+05 -8.487E-08 -8.620E-05  2.930E+02  1.605E+03
  0.000E+00  3.440E-01  1.013E+05 -5.028E-08 -7.535E-05  2.930E+02  1.601E+03
  0.000E+00  3.503E-01  1.013E+05 -1.780E-08 -7.328E-05  2.930E+02  1.598E+03
  0.000E+00  3.567E-01  1.013E+05 -1.542E-08 -5.756E-05  2.930E+02  1.595E+03
  0.000E+00  3.630E-01  1.013E+05 -7.610E-09 -4.397E-05  2.930E+02  1.591E+03
  0.000E+00  3.693E-01  1.013E+05 -4.956E-09 -3.493E-05  2.930E+02  1.588E+03
  0.000E+00  3.756E-01  1.013E+05 -2.827E-09 -2.509E-05  2.930E+02  1.584E+03
  0.000E+00  3.819E-01  1.013E+05 -1.662E-09 -1.155E-05  2.930E+02  1.581E+03
  0.000E+00  3.882E-01  1.013E+05 -9.300E-10  7.989E-06  2.930E+02  1.578E+03
  0.000E+00  3.945E-01  1.013E+05 -5.012E-10  1.855E-05  2.930E+02  1.574E+03
  0.000E+00  4.008E-01  1.013E+05 -2.619E-10  2.785E-05  2.930E+02  1.571E+03
  0.000E+00  4.072E-01  1.013E+05 -1.306E-10  4.551E-05  2.930E+02  1.567E+03
  0.000E+00  4.135E-01  1.013E+05 -6.082E-11  5.748E-05  2.930E+02  1.564E+03
  0.000E+00  4.198E-01  1.013E+05 -3.594E-11  6.686E-05  2.930E+02  1.560E+03
  0.000E+00  4.261E-01  1.013E+05 -3.163E-11  8.553E-05  2.930E+02  1.557E+03
  0.000E+00  4.324E-01  1.013E+05 -2.586E-11  1.043E-04  2.930E+02  1.554E+03
  0.000E+00  4.387E-01  1.013E+05 -1.996E-11  1.133E-04  2.930E+02  1.550E+03
  0.000E+00  4.450E-01  1.013E+05 -1.546E-11  1.204E-04  2.930E+02  1.547E+03
  0.000E+00  4.513E-01  1.013E+05 -1.429E-11  1.229E-04  2.930E+02  1.544E+03
  0.000E+00  4.577E-01  1.013E+05 -2.144E-11  1.235E-04  2.930E+02  1.542E+03
  0.000E+00  4.640E-01  1.013E+05 -1.864E-11  1.405E-04  2.930E+02  1.539E+03
  0.000E+00  4.703E-01  1.013E+05  5.916E-12  1.515E-04  2.930E+02  1.537E+03
  0.000E+00  4.766E-01  1.013E+05  3.539E-11  1.488E-04  2.930E+02  1.535E+03
  0.000E+00  4.829E-01  1.013E+05  7.063E-11  1.540E-04  2.930E+02  1.533E+03
  0.000E+00  4.892E-01  1.013E+05  1.329E-10  1.632E-04  2.930E+02  1.532E+03
  0.000E+00  4.955E-01  1.013E+05  2.436E-10  1.566E-04  2.930E+02  1.531E+03
  0.000E+00  5.018E-01  1.013E+05  2.842E-10 -7.459E-07  2.930E+02  1.530E+03
  0.000E+00  5.050E-01  1.013E+05  2.842E-10 -7.459E-07  2.930E+02  1.530E+03
  6.203E-03  0.000E+00  1.012E+05  0.000E+00  0.000E+00  2.930E+02  2.930E+02
  6.203E-03  3.156E-03  1.012E+05  7.940E-07 -7.154E-04  2.930E+02  3.461E+02
  6.203E-03  9.469E-03  1.012E+05  5.552E-07  3.088E-03  2.930E+02  4.512E+02
  6.203E-03  1.578E-02  1.012E+05  4.358E-07  3.960E-03  2.930E+02  5.526E+02
  6.203E-03  2.209E-02  1.012E+05  1.703E-07  4.560E-03  2.931E+02  6.555E+02
  6.203E-03  2.841E-02  1.012E+05  1.009E-07  4.729E-03  2.931E+02  7.633E+02
  6.203E-03  3.472E-02  1.012E+05  3.621E-08  4.681E-03  2.934E+02  8.772E+02
  6.203E-03  4.103E-02  1.012E+05 -3.771E-09  4.480E-03  2.939E+02  9.976E+02
  6.203E-03  4.734E-02  1.012E+05 -3.806E-08  4.172E-03  2.950E+02  1.124E+03
  6.203E-03  5.366E-02  1.012E+05 -6.644E-08  3.790E-03  2.972E+02  1.254E+03
  6.203E-03  5.997E-02  1.012E+05 -8.276E-08  3.363E-03  3.017E+02  1.387E+03
  6.203E-03  6.628E-02  1.013E+05 -1.111E-07  2.900E-03  3.097E+02  1.521E+03
  6.203E-03  7.259E-02  1.013E+05 -1.343E-07  2.426E-03  3.234E+02  1.657E+03
  6.203E-03  7.891E-02  1.013E+05 -1.618E-07  2.021E-03  3.451E+02  1.811E+03
  6.203E-03  8.522E-02  1.013E+05 -1.929E-07  1.780E-03  3.770E+02  2.045E+03
  6.203E-03  9.153E-02  1.013E+05 -2.333E-07  3.966E-03  4.209E+02  2.622E+03
  6.203E-03  9.784E-02  1.013E+05 -2.548E-07  3.667E-03  3.770E+02  2.646E+03
  6.203E-03  1.042E-01  1.013E+05 -2.334E-07  4.318E-03  3.451E+02  2.654E+03
  6.203E-03  1.105E-01  1.013E+05 -1.814E-07  4.610E-03  3.234E+02  2.649E+03
  6.203E-03  1.168E-01  1.013E+05 -1.221E-07  4.563E-03  3.097E+02  2.633E+03
  6.203E-03  1.231E-01  1.013E+05 -6.724E-08  4.292E-03  3.017E+02  2.607E+03
  6.203E-03  1.294E-01  1.013E+05 -2.367E-08  3.885E-03  2.972E+02  2.570E+03
  6.203E-03  1.357E-01  1.013E+05 -1.965E-10  3.418E-03  2.950E+02  2.525E+03
  6.203E-03  1.420E-01  1.013E+05  1.277E-08  2.951E-03  2.939E+02  2.471E+03
  6.203E-03  1.483E-01  1.013E+05  1.301E-08  2.507E-03  2.934E+02  2.411E+03
  6.203E-03  1.547E-01  1.013E+05  1.210E-08  2.104E-03  2.931E+02  2.348E+03
  6.203E-03  1.610E-01  1.013E+05  9.839E-09  1.741E-03  2.931E+02  2.281E+03
  6.203E-03  1.673E-01  1.013E+05  7.711E-09  1.425E-03  2.930E+02  2.215E+03
  6.203E-03  1.736E-01  1.013E+05  5.882E-09  1.167E-03  2.930E+02  2.149E+03
  6.203E-03  1.799E-01  1.013E+05  4.454E-09  9.430E-04  2.930E+02  2.087E+03
  6.203E-03  1.862E-01  1.013E+05  3.370E-09  7.445E-04  2.930E+02  2.029E+03
  6.203E-03  1.925E-01  1.013E+05  2.560E-09  5.811E-04  2.930E+02  1.975E+03
  6.203E-03  1.988E-01  1.013E+05  1.971E-09  4.518E-04  2.930E+02  1.927E+03
  6.203E-03  2.052E-01  1.013E+05  1.557E-09  3.457E-04  2.930E+02  1.884E+03
  6.203E-03  2.115E-01  1.013E+05  1.274E-09  2.504E-04  2.930E+02  1.846E+03
  6.203E-03  2.178E-01  1.013E+05  1.080E-09  1.662E-04  2.930E+02  1.813E+03
  6.203E-03  2.241E-01  1.013E+05  9.493E-10  1.027E-04  2.930E+02  1.783E+03
  6.203E-03  2.304E-01  1.013E+05  8.774E-10  5.930E-05  2.930E+02  1.758E+03
  6.203E-03  2.367E-01  1.013E+05  8.473E-10  1.719E-05  2.930E+02  1.737E+03
  6.203E-03  2.430E-01  1.013E+05  8.249E-10 -1.716E-05  2.930E+02  1.718E+03
  6.203E-03  2.493E-01  1.013E+05  7.840E-10 -3.847E-05  2.930E+02  1.702E+03
  6.203E-03  2.557E-01  1.013E+05  6.822E-10 -6.035E-05  2.930E+02  1.688E+03
  6.203E-03  2.620E-01  1.013E+05  4.435E-10 -8.168E-05  2.930E+02  1.676E+03
  6.203E-03  2.683E-01  1.013E+05 -8.602E-12 -9.401E-05  2.930E+02  1.666E+03
  6.203E-03  2.746E-01  1.013E+05 -8.063E-10 -9.781E-05  2.930E+02  1.657E+03
  6.203E-03  2.809E-01  1.013E+05 -1.914E-09 -1.070E-04  2.930E+02  1.649E+03
  6.203E-03  2.872E-01  1.013E+05 -4.013E-09 -1.136E-04  2.930E+02  1.642E+03
  6.203E-03  2.935E-01  1.013E+05 -6.005E-09 -1.127E-04  2.930E+02  1.636E+03
  6.203E-03  2.998E-01  1.013E+05 -1.337E-08 -1.144E-04  2.930E+02  1.630E+03
  6.203E-03  3.062E-01  1.013E+05 -3.170E-08 -1.073E-04  2.930E+02  1.625E+03
  6.203E-03  3.125E-01  1.013E+05 -7.694E-08 -9.868E-05  2.930E+02  1.621E+03
  6.203E-03  3.188E-01  1.013E+05 -2.712E-07 -1.001E-04  2.930E+02  1.616E+03
  6.203E-03  3.251E-01  1.013E+05 -4.937E-07 -1.074E-04  2.930E+02  1.612E+03
  6.203E-03  3.314E-01  1.013E+05 -2.752E-07 -1.063E-04  2.930E+02  1.609E+03
  6.203E-03  3.377E-01  1.013E+05 -8.487E-08 -8.620E-05  2.930E+02  1.605E+03
  6.203E-03  3.440E-01  1.013E+05 -5.028E-08 -7.535E-05  2.930E+02  1.601E+03
  6.203E-03  3.503E-01  1.013E+05 -1.780E-08 -7.328E-05  2.930E+02  1.598E+03
  6.203E-03  3.567E-01  1.013E+05 -1.542E-08 -5.756E-05  2.930E+02  1.595E+03
  6.203E-03  3.630E-01  1.013E+05 -7.610E-09 -4.397E-05  2.930E+02  1.591E+03
  6.203E-03  3.693E-01  1.013E+05 -4.956E-09 -3.493E-05  2.930E+02  1.588E+03
  6.203E-03  3.756E-01  1.013E+05 -2.827E-09 -2.509E-05  2.930E+02  1.584E+03
  6.203E-03  3.819E-01  1.013E+05 -1.662E-09 -1.155E-05  2.930E+02  1.581E+03
  6.203E-03  3.882E-01  1.013E+05 -9.300E-10  7.989E-06  2.930E+02  1.578E+03
  6.203E-03  3.945E-01  1.013E+05 -5.012E-10  1.855E-05  2.930E+02  1.574E+03
  6.203E-03  4.008E-01  1.013E+05 -2.619E-10  2.785E-05  2.930E+02  1.571E+03
  6.203E-03  4.072E-01  1.013E+05 -1.306E-10  4.551E-05  2.930E+02  1.567E+03
  6.203E-03  4.135E-01  1.013E+05 -6.082E-11  5.748E-05  2.930E+02  1.564E+03
  6.203E-03  4.198E-01  1.013E+05 -3.594E-11  6.686E-05  2.930E+02  1.560E+03
  6.203E-03  4.261E-01  1.013E+05 -3.163E-11  8.553E-05  2.930E+02  1.557E+03
  6.203E-03  4.324E-01  1.013E+05 -2.586E-11  1.043E-04  2.930E+02  1.554E+03
  6.203E-03  4.387E-01  1.013E+05 -1.996E-11  1.133E-04  2.930E+02  1.550E+03
  6.203E-03  4.450E-01  1.013E+05 -1.546E-11  1.204E-04  2.930E+02  1.547E+03
  6.203E-03  4.513E-01  1.013E+05 -1.429E-11  1.229E-04  2.930E+02  1.544E+03
  6.203E-03  4.577E-01  1.013E+05 -2.144E-11  1.235E-04  2.930E+02  1.542E+03
  6.203E-03  4.640E-01  1.013E+05 -1.864E-11  1.405E-04  2.930E+02  1.539E+03
  6.203E-03  4.703E-01  1.013E+05  5.916E-12  1.515E-04  2.930E+02  1.537E+03
  6.203E-03  4.766E-01  1.013E+05  3.539E-11  1.488E-04  2.930E+02  1.535E+03
  6.203E-03  4.829E-01  1.013E+05  7.063E-11  1.540E-04  2.930E+02  1.533E+03
  6.203E-03  4.892E-01  1.013E+05  1.329E-10  1.632E-04  2.930E+02  1.532E+03
  6.203E-03  4.955E-01  1.013E+05  2.436E-10  1.566E-04  2.930E+02  1.531E+03
  6.203E-03  5.018E-01  1.013E+05  2.842E-10 -7.459E-07  2.930E+02  1.530E+03
  6.203E-03  5.050E-01  1.013E+05  0.000E+00 -7.459E-07  2.930E+02  1.530E+03
  1.861E-02  0.000E+00  1.012E+05  0.000E+00  0.000E+00  2.930E+02  2.930E+02
  1.861E-02  3.156E-03  1.012E+05  3.141E-06 -7.156E-04  2.930E+02  3.460E+02
  1.861E-02  9.469E-03  1.012E+05  4.498E-06  3.088E-03  2.930E+02  4.511E+02
  1.861E-02  1.578E-02  1.012E+05  1.690E-06  3.960E-03  2.930E+02  5.525E+02
  1.861E-02  2.209E-02  1.012E+05 -4.092E-07  4.561E-03  2.931E+02  6.555E+02
  1.861E-02  2.841E-02  1.012E+05  7.979E-08  4.729E-03  2.931E+02  7.632E+02
  1.861E-02  3.472E-02  1.012E+05 -1.216E-08  4.682E-03  2.934E+02  8.771E+02
  1.861E-02  4.103E-02  1.012E+05 -4.220E-08  4.481E-03  2.939E+02  9.975E+02
  1.861E-02  4.734E-02  1.012E+05 -8.753E-08  4.173E-03  2.950E+02  1.124E+03
  1.861E-02  5.366E-02  1.012E+05 -1.387E-07  3.791E-03  2.972E+02  1.254E+03
  1.861E-02  5.997E-02  1.012E+05 -1.796E-07  3.363E-03  3.017E+02  1.387E+03
  1.861E-02  6.628E-02  1.013E+05 -2.484E-07  2.900E-03  3.097E+02  1.521E+03
  1.861E-02  7.259E-02  1.013E+05 -2.929E-07  2.426E-03  3.234E+02  1.657E+03
  1.861E-02  7.891E-02  1.013E+05 -3.588E-07  2.021E-03  3.451E+02  1.811E+03
  1.861E-02  8.522E-02  1.013E+05 -4.297E-07  1.780E-03  3.770E+02  2.045E+03
  1.861E-02  9.153E-02  1.013E+05 -6.439E-07  3.966E-03  4.209E+02  2.622E+03
  1.861E-02  9.784E-02  1.013E+05 -8.567E-07  3.667E-03  3.770E+02  2.646E+03
  1.861E-02  1.042E-01  1.013E+05 -6.246E-07  4.319E-03  3.451E+02  2.654E+03
  1.861E-02  1.105E-01  1.013E+05 -3.845E-07  4.610E-03  3.234E+02  2.649E+03
  1.861E-02  1.168E-01  1.013E+05 -2.748E-07  4.563E-03  3.097E+02  2.633E+03
  1.861E-02  1.231E-01  1.013E+05 -1.926E-07  4.292E-03  3.017E+02  2.607E+03
  1.861E-02  1.294E-01  1.013E+05 -1.250E-07  3.885E-03  2.972E+02  2.570E+03
  1.861E-02  1.357E-01  1.013E+05 -2.839E-07  3.418E-03  2.950E+02  2.525E+03
  1.861E-02  1.420E-01  1.013E+05 -5.413E-08  2.951E-03  2.939E+02  2.471E+03
  1.861E-02  1.483E-01  1.013E+05 -3.587E-08  2.507E-03  2.934E+02  2.411E+03
  1.861E-02  1.547E-01  1.013E+05 -5.817E-09  2.104E-03  2.931E+02  2.347E+03
  1.861E-02  1.610E-01  1.013E+05  2.743E-09  1.741E-03  2.931E+02  2.281E+03
  1.861E-02  1.673E-01  1.013E+05  6.449E-09  1.425E-03  2.930E+02  2.214E+03
  1.861E-02  1.736E-01  1.013E+05  6.870E-09  1.167E-03  2.930E+02  2.149E+03
  1.861E-02  1.799E-01  1.013E+05  6.164E-09  9.430E-04  2.930E+02  2.087E+03
  1.861E-02  1.862E-01  1.013E+05  5.101E-09  7.445E-04  2.930E+02  2.029E+03
  1.861E-02  1.925E-01  1.013E+05  4.063E-09  5.811E-04  2.930E+02  1.975E+03
  1.861E-02  1.988E-01  1.013E+05  3.207E-09  4.518E-04  2.930E+02  1.927E+03
  1.861E-02  2.052E-01  1.013E+05  2.572E-09  3.457E-04  2.930E+02  1.884E+03
  1.861E-02  2.115E-01  1.013E+05  2.144E-09  2.504E-04  2.930E+02  1.846E+03
  1.861E-02  2.178E-01  1.013E+05  1.880E-09  1.662E-04  2.930E+02  1.813E+03
  1.861E-02  2.241E-01  1.013E+05  1.741E-09  1.027E-04  2.930E+02  1.783E+03
  1.861E-02  2.304E-01  1.013E+05  1.714E-09  5.930E-05  2.930E+02  1.758E+03
  1.861E-02  2.367E-01  1.013E+05  1.768E-09  1.719E-05  2.930E+02  1.737E+03
  1.861E-02  2.430E-01  1.013E+05  1.860E-09 -1.716E-05  2.930E+02  1.718E+03
  1.861E-02  2.493E-01  1.013E+05  1.936E-09 -3.847E-05  2.930E+02  1.702E+03
  1.861E-02  2.557E-01  1.013E+05  1.922E-09 -6.035E-05  2.930E+02  1.688E+03
  1.861E-02  2.620E-01  1.013E+05  1.684E-09 -8.169E-05  2.930E+02  1.676E+03
  1.861E-02  2.683E-01  1.013E+05  1.199E-09 -9.401E-05  2.930E+02  1.666E+03
  1.861E-02  2.746E-01  1.013E+05  2.955E-10 -9.782E-05  2.930E+02  1.657E+03
  1.861E-02  2.809E-01  1.013E+05  9.428E-10 -1.070E-04  2.930E+02  1.649E+03
  1.861E-02  2.872E-01  1.013E+05  1.406E-09 -1.136E-04  2.930E+02  1.642E+03
  1.861E-02  2.935E-01  1.013E+05  2.186E-08 -1.127E-04  2.930E+02  1.636E+03
  1.861E-02  2.998E-01  1.013E+05  5.365E-08 -1.145E-04  2.930E+02  1.630E+03
  1.861E-02  3.062E-01  1.013E+05  8.211E-08 -1.074E-04  2.930E+02  1.625E+03
  1.861E-02  3.125E-01  1.013E+05  5.954E-07 -9.915E-05  2.930E+02  1.621E+03
  1.861E-02  3.188E-01  1.013E+05 -1.413E-06 -1.009E-04  2.930E+02  1.616E+03
  1.861E-02  3.251E-01  1.013E+05 -4.956E-06 -1.074E-04  2.930E+02  1.612E+03
  1.861E-02  3.314E-01  1.013E+05 -1.427E-06 -1.055E-04  2.930E+02  1.609E+03
  1.861E-02  3.377E-01  1.013E+05  5.582E-07 -8.576E-05  2.930E+02  1.605E+03
  1.861E-02  3.440E-01  1.013E+05 -1.012E-08 -7.522E-05  2.930E+02  1.601E+03
  1.861E-02  3.503E-01  1.013E+05 -5.045E-08 -7.321E-05  2.930E+02  1.598E+03
  1.861E-02  3.567E-01  1.013E+05 -6.341E-08 -5.754E-05  2.930E+02  1.595E+03
  1.861E-02  3.630E-01  1.013E+05 -3.885E-08 -4.395E-05  2.930E+02  1.591E+03
  1.861E-02  3.693E-01  1.013E+05 -2.474E-08 -3.492E-05  2.930E+02  1.588E+03
  1.861E-02  3.756E-01  1.013E+05 -1.386E-08 -2.509E-05  2.930E+02  1.584E+03
  1.861E-02  3.819E-01  1.013E+05 -7.656E-09 -1.155E-05  2.930E+02  1.581E+03
  1.861E-02  3.882E-01  1.013E+05 -4.023E-09  7.991E-06  2.930E+02  1.578E+03
  1.861E-02  3.945E-01  1.013E+05 -2.026E-09  1.856E-05  2.930E+02  1.574E+03
  1.861E-02  4.008E-01  1.013E+05 -9.548E-10  2.785E-05  2.930E+02  1.571E+03
  1.861E-02  4.072E-01  1.013E+05 -3.983E-10  4.551E-05  2.930E+02  1.567E+03
  1.861E-02  4.135E-01  1.013E+05 -1.217E-10  5.748E-05  2.930E+02  1.564E+03
  1.861E-02  4.198E-01  1.013E+05 -6.796E-12  6.686E-05  2.930E+02  1.560E+03
  1.861E-02  4.261E-01  1.013E+05  2.799E-11  8.553E-05  2.930E+02  1.557E+03
  1.861E-02  4.324E-01  1.013E+05  3.606E-11  1.043E-04  2.930E+02  1.554E+03
  1.861E-02  4.387E-01  1.013E+05  3.262E-11  1.133E-04  2.930E+02  1.550E+03
  1.861E-02  4.450E-01  1.013E+05  2.532E-11  1.204E-04  2.930E+02  1.547E+03
  1.861E-02  4.513E-01  1.013E+05  1.512E-11  1.229E-04  2.930E+02  1.544E+03
  1.861E-02  4.577E-01  1.013E+05 -4.304E-13  1.235E-04  2.930E+02  1.542E+03
  1.861E-02  4.640E-01  1.013E+05  3.463E-12  1.405E-04  2.930E+02  1.539E+03
  1.861E-02  4.703E-01  1.013E+05  3.490E-11  1.515E-04  2.930E+02  1.537E+03
  1.861E-02  4.766E-01  1.013E+05  7.510E-11  1.488E-04  2.930E+02  1.535E+03
  1.861E-02  4.829E-01  1.013E+05  1.200E-10  1.540E-04  2.930E+02  1.533E+03
  1.861E-02  4.892E-01  1.013E+05  1.924E-10  1.632E-04  2.930E+02  1.532E+03
  1.861E-02  4.955E-01  1.013E+05  3.045E-10  1.566E-04  2.930E+02  1.531E+03
  1.861E-02  5.018E-01  1.013E+05  3.509E-10 -7.469E-07  2.930E+02  1.530E+03
  1.861E-02  5.050E-01  1.013E+05  0.000E+00 -7.469E-07  2.930E+02  1.530E+03
  3.102E-02  0.000E+00  1.012E+05  0.000E+00  0.000E+00  2.930E+02  2.930E+02
  3.102E-02  3.156E-03  1.012E+05  3.224E-06 -6.746E-04  2.930E+02  3.458E+02
  3.102E-02  9.469E-03  1.012E+05  5.119E-06  3.087E-03  2.930E+02  4.509E+02
  3.102E-02  1.578E-02  1.012E+05  2.164E-06  3.953E-03  2.930E+02  5.527E+02
  3.102E-02  2.209E-02  1.012E+05 -1.396E-07  4.559E-03  2.931E+02  6.553E+02
  3.102E-02  2.841E-02  1.012E+05  2.044E-07  4.732E-03  2.931E+02  7.630E+02
  3.102E-02  3.472E-02  1.012E+05  2.468E-10  4.684E-03  2.934E+02  8.769E+02
  3.102E-02  4.103E-02  1.012E+05 -1.718E-08  4.482E-03  2.939E+02  9.973E+02
  3.102E-02  4.734E-02  1.012E+05 -8.982E-09  4.174E-03  2.950E+02  1.124E+03
  3.102E-02  5.366E-02  1.012E+05 -4.992E-08  3.792E-03  2.972E+02  1.254E+03
  3.102E-02  5.997E-02  1.012E+05  1.143E-07  3.365E-03  3.017E+02  1.387E+03
  3.102E-02  6.628E-02  1.013E+05 -1.576E-07  2.901E-03  3.097E+02  1.520E+03
  3.102E-02  7.259E-02  1.013E+05 -2.124E-07  2.427E-03  3.234E+02  1.656E+03
  3.102E-02  7.891E-02  1.013E+05 -3.416E-07  2.022E-03  3.451E+02  1.810E+03
  3.102E-02  8.522E-02  1.013E+05 -4.537E-07  1.780E-03  3.770E+02  2.044E+03
  3.102E-02  9.153E-02  1.013E+05 -6.698E-07  3.966E-03  4.209E+02  2.621E+03
  3.102E-02  9.784E-02  1.013E+05 -8.792E-07  3.667E-03  3.770E+02  2.645E+03
  3.102E-02  1.042E-01  1.013E+05 -6.306E-07  4.320E-03  3.451E+02  2.653E+03
  3.102E-02  1.105E-01  1.013E+05 -3.721E-07  4.611E-03  3.234E+02  2.649E+03
  3.102E-02  1.168E-01  1.013E+05 -2.405E-07  4.563E-03  3.097E+02  2.633E+03
  3.102E-02  1.231E-01  1.013E+05 -1.242E-07  4.292E-03  3.017E+02  2.607E+03
  3.102E-02  1.294E-01  1.013E+05 -4.043E-08  3.885E-03  2.972E+02  2.570E+03
  3.102E-02  1.357E-01  1.013E+05 -6.707E-09  3.418E-03  2.950E+02  2.524E+03
  3.102E-02  1.420E-01  1.013E+05  1.534E-08  2.952E-03  2.939E+02  2.471E+03
  3.102E-02  1.483E-01  1.013E+05  2.185E-08  2.507E-03  2.934E+02  2.411E+03
  3.102E-02  1.547E-01  1.013E+05  2.245E-08  2.104E-03  2.931E+02  2.347E+03
  3.102E-02  1.610E-01  1.013E+05  1.973E-08  1.741E-03  2.931E+02  2.281E+03
  3.102E-02  1.673E-01  1.013E+05  1.599E-08  1.425E-03  2.930E+02  2.214E+03
  3.102E-02  1.736E-01  1.013E+05  1.227E-08  1.167E-03  2.930E+02  2.149E+03
  3.102E-02  1.799E-01  1.013E+05  9.064E-09  9.430E-04  2.930E+02  2.087E+03
  3.102E-02  1.862E-01  1.013E+05  6.519E-09  7.445E-04  2.930E+02  2.029E+03
  3.102E-02  1.925E-01  1.013E+05  4.621E-09  5.811E-04  2.930E+02  1.975E+03
  3.102E-02  1.988E-01  1.013E+05  3.292E-09  4.518E-04  2.930E+02  1.927E+03
  3.102E-02  2.052E-01  1.013E+05  2.418E-09  3.457E-04  2.930E+02  1.884E+03
  3.102E-02  2.115E-01  1.013E+05  1.903E-09  2.504E-04  2.930E+02  1.846E+03
  3.102E-02  2.178E-01  1.013E+05  1.664E-09  1.662E-04  2.930E+02  1.813E+03
  3.102E-02  2.241E-01  1.013E+05  1.628E-09  1.028E-04  2.930E+02  1.783E+03
  3.102E-02  2.304E-01  1.013E+05  1.746E-09  5.930E-05  2.930E+02  1.758E+03
  3.102E-02  2.367E-01  1.013E+05  1.956E-09  1.719E-05  2.930E+02  1.737E+03
  3.102E-02  2.430E-01  1.013E+05  2.172E-09 -1.716E-05  2.930E+02  1.718E+03
  3.102E-02  2.493E-01  1.013E+05  2.209E-09 -3.847E-05  2.930E+02  1.702E+03
  3.102E-02  2.557E-01  1.013E+05  1.726E-09 -6.035E-05  2.930E+02  1.688E+03
  3.102E-02  2.620E-01  1.013E+05  5.589E-12 -8.168E-05  2.930E+02  1.676E+03
  3.102E-02  2.683E-01  1.013E+05 -3.897E-09 -9.402E-05  2.930E+02  1.666E+03
  3.102E-02  2.746E-01  1.013E+05 -1.253E-08 -9.781E-05  2.930E+02  1.657E+03
  3.102E-02  2.809E-01  1.013E+05 -2.352E-08 -1.070E-04  2.930E+02  1.649E+03
  3.102E-02  2.872E-01  1.013E+05 -4.792E-08 -1.136E-04  2.930E+02  1.642E+03
  3.102E-02  2.935E-01  1.013E+05 -2.749E-08 -1.126E-04  2.930E+02  1.636E+03
  3.102E-02  2.998E-01  1.013E+05  4.512E-08 -1.143E-04  2.930E+02  1.630E+03
  3.102E-02  3.062E-01  1.013E+05  3.187E-07 -1.062E-04  2.930E+02  1.625E+03
  3.102E-02  3.125E-01  1.013E+05  6.532E-07 -1.016E-04  2.930E+02  1.621E+03
  3.102E-02  3.188E-01  1.013E+05 -1.349E-06 -1.110E-04  2.930E+02  1.616E+03
  3.102E-02  3.251E-01  1.013E+05 -4.893E-06 -1.075E-04  2.930E+02  1.612E+03
  3.102E-02  3.314E-01  1.013E+05 -1.392E-06 -9.545E-05  2.930E+02  1.609E+03
  3.102E-02  3.377E-01  1.013E+05  5.714E-07 -8.338E-05  2.930E+02  1.605E+03
  3.102E-02  3.440E-01  1.013E+05 -1.463E-07 -7.655E-05  2.930E+02  1.601E+03
  3.102E-02  3.503E-01  1.013E+05 -3.731E-07 -7.338E-05  2.930E+02  1.598E+03
  3.102E-02  3.567E-01  1.013E+05 -2.090E-07 -5.753E-05  2.930E+02  1.595E+03
  3.102E-02  3.630E-01  1.013E+05 -4.663E-08 -4.389E-05  2.930E+02  1.591E+03
  3.102E-02  3.693E-01  1.013E+05 -2.422E-08 -3.488E-05  2.930E+02  1.588E+03
  3.102E-02  3.756E-01  1.013E+05 -7.047E-09 -2.506E-05  2.930E+02  1.584E+03
  3.102E-02  3.819E-01  1.013E+05 -2.739E-09 -1.153E-05  2.930E+02  1.581E+03
  3.102E-02  3.882E-01  1.013E+05 -7.545E-10  8.001E-06  2.930E+02  1.578E+03
  3.102E-02  3.945E-01  1.013E+05 -6.984E-11  1.856E-05  2.930E+02  1.574E+03
  3.102E-02  4.008E-01  1.013E+05  2.107E-10  2.785E-05  2.930E+02  1.571E+03
  3.102E-02  4.072E-01  1.013E+05  3.076E-10  4.551E-05  2.930E+02  1.567E+03
  3.102E-02  4.135E-01  1.013E+05  3.232E-10  5.748E-05  2.930E+02  1.564E+03
  3.102E-02  4.198E-01  1.013E+05  2.980E-10  6.686E-05  2.930E+02  1.560E+03
  3.102E-02  4.261E-01  1.013E+05  2.550E-10  8.553E-05  2.930E+02  1.557E+03
  3.102E-02  4.324E-01  1.013E+05  2.069E-10  1.043E-04  2.930E+02  1.554E+03
  3.102E-02  4.387E-01  1.013E+05  1.596E-10  1.133E-04  2.930E+02  1.550E+03
  3.102E-02  4.450E-01  1.013E+05  1.215E-10  1.204E-04  2.930E+02  1.547E+03
  3.102E-02  4.513E-01  1.013E+05  9.170E-11  1.229E-04  2.930E+02  1.544E+03
  3.102E-02  4.577E-01  1.013E+05  6.837E-11  1.235E-04  2.930E+02  1.542E+03
  3.102E-02  4.640E-01  1.013E+05  6.033E-11  1.405E-04  2.930E+02  1.539E+03
  3.102E-02  4.703E-01  1.013E+05  6.263E-11  1.515E-04  2.930E+02  1.537E+03
  3.102E-02  4.766E-01  1.013E+05  7.332E-11  1.488E-04  2.930E+02  1.535E+03
  3.102E-02  4.829E-01  1.013E+05  8.424E-11  1.540E-04  2.930E+02  1.533E+03
  3.102E-02  4.892E-01  1.013E+05  9.652E-11  1.632E-04  2.930E+02  1.532E+03
  3.102E-02  4.955E-01  1.013E+05  9.455E-11  1.566E-04  2.930E+02  1.531E+03
  3.102E-02  5.018E-01  1.013E+05  1.009E-10 -7.471E-07  2.930E+02  1.530E+03
  3.102E-02  5.050E-01  1.013E+05  0.000E+00 -7.471E-07  2.930E+02  1.530E+03
  4.342E-02  0.000E+00  1.012E+05  0.000E+00  0.000E+00  2.930E+02  2.930E+02
  4.342E-02  3.156E-03  1.012E+05  1.234E-06 -6.742E-04  2.930E+02  3.458E+02
  4.342E-02  9.469E-03  1.012E+05  1.286E-06  3.088E-03  2.930E+02  4.507E+02
  4.342E-02  1.578E-02  1.012E+05  1.193E-06  3.954E-03  2.930E+02  5.523E+02
  4.342E-02  2.209E-02  1.012E+05  6.379E-07  4.558E-03  2.931E+02  6.551E+02
  4.342E-02  2.841E-02  1.012E+05  5.875E-07  4.733E-03  2.931E+02  7.628E+02
  4.342E-02  3.472E-02  1.012E+05  1.580E-07  4.685E-03  2.934E+02  8.767E+02
  4.342E-02  4.103E-02  1.012E+05  9.062E-08  4.483E-03  2.939E+02  9.969E+02
  4.342E-02  4.734E-02  1.012E+05  6.281E-08  4.176E-03  2.950E+02  1.123E+03
  4.342E-02  5.366E-02  1.012E+05  1.600E-08  3.794E-03  2.972E+02  1.253E+03
  4.342E-02  5.997E-02  1.012E+05  1.923E-07  3.366E-03  3.017E+02  1.387E+03
  4.342E-02  6.628E-02  1.013E+05 -6.338E-08  2.902E-03  3.097E+02  1.520E+03
  4.342E-02  7.259E-02  1.013E+05 -1.138E-07  2.428E-03  3.234E+02  1.656E+03
  4.342E-02  7.891E-02  1.013E+05 -2.332E-07  2.023E-03  3.451E+02  1.810E+03
  4.342E-02  8.522E-02  1.013E+05 -3.315E-07  1.781E-03  3.770E+02  2.044E+03
  4.342E-02  9.153E-02  1.013E+05 -3.871E-07  3.966E-03  4.209E+02  2.621E+03
  4.342E-02  9.784E-02  1.013E+05 -3.858E-07  3.668E-03  3.770E+02  2.645E+03
  4.342E-02  1.042E-01  1.013E+05 -3.246E-07  4.320E-03  3.451E+02  2.653E+03
  4.342E-02  1.105E-01  1.013E+05 -2.308E-07  4.611E-03  3.234E+02  2.648E+03
  4.342E-02  1.168E-01  1.013E+05 -1.470E-07  4.563E-03  3.097E+02  2.633E+03
  4.342E-02  1.231E-01  1.013E+05 -5.568E-08  4.292E-03  3.017E+02  2.606E+03
  4.342E-02  1.294E-01  1.013E+05  1.140E-08  3.885E-03  2.972E+02  2.570E+03
  4.342E-02  1.357E-01  1.013E+05  2.422E-07  3.418E-03  2.950E+02  2.524E+03
  4.342E-02  1.420E-01  1.013E+05  6.024E-08  2.951E-03  2.939E+02  2.471E+03
  4.342E-02  1.483E-01  1.013E+05  6.194E-08  2.507E-03  2.934E+02  2.411E+03
  4.342E-02  1.547E-01  1.013E+05  3.835E-08  2.104E-03  2.931E+02  2.347E+03
  4.342E-02  1.610E-01  1.013E+05  2.839E-08  1.741E-03  2.931E+02  2.281E+03
  4.342E-02  1.673E-01  1.013E+05  2.009E-08  1.425E-03  2.930E+02  2.214E+03
  4.342E-02  1.736E-01  1.013E+05  1.425E-08  1.167E-03  2.930E+02  2.149E+03
  4.342E-02  1.799E-01  1.013E+05  9.939E-09  9.430E-04  2.930E+02  2.087E+03
  4.342E-02  1.862E-01  1.013E+05  6.851E-09  7.445E-04  2.930E+02  2.029E+03
  4.342E-02  1.925E-01  1.013E+05  4.690E-09  5.811E-04  2.930E+02  1.975E+03
  4.342E-02  1.988E-01  1.013E+05  3.243E-09  4.518E-04  2.930E+02  1.927E+03
  4.342E-02  2.052E-01  1.013E+05  2.324E-09  3.457E-04  2.930E+02  1.884E+03
  4.342E-02  2.115E-01  1.013E+05  1.802E-09  2.504E-04  2.930E+02  1.846E+03
  4.342E-02  2.178E-01  1.013E+05  1.588E-09  1.662E-04  2.930E+02  1.813E+03
  4.342E-02  2.241E-01  1.013E+05  1.615E-09  1.028E-04  2.930E+02  1.783E+03
  4.342E-02  2.304E-01  1.013E+05  1.856E-09  5.930E-05  2.930E+02  1.758E+03
  4.342E-02  2.367E-01  1.013E+05  2.279E-09  1.719E-05  2.930E+02  1.737E+03
  4.342E-02  2.430E-01  1.013E+05  2.835E-09 -1.716E-05  2.930E+02  1.718E+03
  4.342E-02  2.493E-01  1.013E+05  3.323E-09 -3.847E-05  2.930E+02  1.702E+03
  4.342E-02  2.557E-01  1.013E+05  3.234E-09 -6.036E-05  2.930E+02  1.688E+03
  4.342E-02  2.620E-01  1.013E+05  8.892E-10 -8.170E-05  2.930E+02  1.676E+03
  4.342E-02  2.683E-01  1.013E+05 -6.231E-09 -9.404E-05  2.930E+02  1.666E+03
  4.342E-02  2.746E-01  1.013E+05 -3.246E-08 -9.785E-05  2.930E+02  1.657E+03
  4.342E-02  2.809E-01  1.013E+05 -7.287E-08 -1.070E-04  2.930E+02  1.649E+03
  4.342E-02  2.872E-01  1.013E+05 -2.769E-07 -1.136E-04  2.930E+02  1.642E+03
  4.342E-02  2.935E-01  1.013E+05 -4.893E-07 -1.125E-04  2.930E+02  1.636E+03
  4.342E-02  2.998E-01  1.013E+05 -2.493E-07 -1.138E-04  2.930E+02  1.630E+03
  4.342E-02  3.062E-01  1.013E+05  1.617E-07 -1.062E-04  2.930E+02  1.625E+03
  4.342E-02  3.125E-01  1.013E+05 -2.431E-08 -1.024E-04  2.930E+02  1.621E+03
  4.342E-02  3.188E-01  1.013E+05 -1.929E-07 -1.118E-04  2.930E+02  1.616E+03
  4.342E-02  3.251E-01  1.013E+05 -2.127E-07 -1.075E-04  2.930E+02  1.612E+03
  4.342E-02  3.314E-01  1.013E+05 -2.164E-07 -9.474E-05  2.930E+02  1.609E+03
  4.342E-02  3.377E-01  1.013E+05 -4.161E-08 -8.327E-05  2.930E+02  1.605E+03