VARIABLES="XP","YP","P","U","V","TS","TF"
ZONE T="Zone 001"I=    82 J=    12 F=POINT
  0.000E+00  0.000E+00  1.013E+05  5.552E-10 -1.025E-03  2.930E+02  4.767E+02
  0.000E+00  3.156E-03  1.013E+05  5.552E-10 -1.025E-03  2.930E+02  4.767E+02
  0.000E+00  9.469E-03  1.013E+05 -2.225E-10  6.167E-04  2.930E+02  8.166E+02
  0.000E+00  1.578E-02  1.013E+05  1.207E-09  3.601E-04  2.930E+02  1.098E+03
  0.000E+00  2.209E-02  1.013E+05  1.743E-09 -3.723E-05  2.930E+02  1.304E+03
  0.000E+00  2.841E-02  1.013E+05  1.934E-09 -3.754E-04  2.930E+02  1.427E+03
  0.000E+00  3.472E-02  1.013E+05  1.905E-09 -6.287E-04  2.930E+02  1.492E+03
  0.000E+00  4.103E-02  1.013E+05  1.805E-09 -8.247E-04  2.930E+02  1.526E+03
  0.000E+00  4.734E-02  1.013E+05  1.691E-09 -9.860E-04  2.930E+02  1.546E+03
  0.000E+00  5.366E-02  1.013E+05  1.587E-09 -1.121E-03  2.931E+02  1.560E+03
  0.000E+00  5.997E-02  1.013E+05  1.524E-09 -1.230E-03  2.933E+02  1.572E+03
  0.000E+00  6.628E-02  1.013E+05  1.518E-09 -1.335E-03  2.940E+02  1.583E+03
  0.000E+00  7.259E-02  1.013E+05  1.556E-09 -1.454E-03  2.964E+02  1.593E+03
  0.000E+00  7.891E-02  1.013E+05  1.624E-09 -1.605E-03  3.036E+02  1.603E+03
  0.000E+00  8.522E-02  1.013E+05  1.524E-09 -1.819E-03  3.218E+02  1.612E+03
  0.000E+00  9.153E-02  1.013E+05  1.803E-09 -1.731E-03  3.596E+02  1.621E+03
  0.000E+00  9.784E-02  1.013E+05  1.414E-09 -2.611E-03  3.218E+02  1.166E+03
  0.000E+00  1.042E-01  1.013E+05  3.683E-10 -2.410E-03  3.036E+02  1.070E+03
  0.000E+00  1.105E-01  1.013E+05 -9.281E-11 -2.325E-03  2.964E+02  1.051E+03
  0.000E+00  1.168E-01  1.013E+05 -4.590E-10 -2.223E-03  2.940E+02  1.048E+03
  0.000E+00  1.231E-01  1.013E+05 -6.973E-10 -2.105E-03  2.933E+02  1.048E+03
  0.000E+00  1.294E-01  1.013E+05 -8.366E-10 -1.980E-03  2.931E+02  1.050E+03
  0.000E+00  1.357E-01  1.013E+05 -9.100E-10 -1.869E-03  2.930E+02  1.052E+03
  0.000E+00  1.420E-01  1.013E+05 -9.416E-10 -1.754E-03  2.930E+02  1.054E+03
  0.000E+00  1.483E-01  1.013E+05 -9.296E-10 -1.643E-03  2.930E+02  1.056E+03
  0.000E+00  1.547E-01  1.013E+05 -8.955E-10 -1.549E-03  2.930E+02  1.058E+03
  0.000E+00  1.610E-01  1.013E+05 -8.547E-10 -1.457E-03  2.930E+02  1.061E+03
  0.000E+00  1.673E-01  1.013E+05 -8.012E-10 -1.369E-03  2.930E+02  1.063E+03
  0.000E+00  1.736E-01  1.013E+05 -7.332E-10 -1.290E-03  2.930E+02  1.066E+03
  0.000E+00  1.799E-01  1.013E+05 -6.620E-10 -1.226E-03  2.930E+02  1.068E+03
  0.000E+00  1.862E-01  1.013E+05 -5.990E-10 -1.172E-03  2.930E+02  1.071E+03
  0.000E+00  1.925E-01  1.013E+05 -5.369E-10 -1.114E-03  2.930E+02  1.074E+03
  0.000E+00  1.988E-01  1.013E+05 -4.603E-10 -1.061E-03  2.930E+02  1.077E+03
  0.000E+00  2.052E-01  1.013E+05 -3.727E-10 -1.022E-03  2.930E+02  1.080E+03
  0.000E+00  2.115E-01  1.013E+05 -3.031E-10 -1.005E-03  2.930E+02  1.083E+03
  0.000E+00  2.178E-01  1.013E+05 -2.654E-10 -9.861E-04  2.930E+02  1.086E+03
  0.000E+00  2.241E-01  1.013E+05 -2.266E-10 -9.524E-04  2.930E+02  1.089E+03
  0.000E+00  2.304E-01  1.013E+05 -1.749E-10 -9.317E-04  2.930E+02  1.092E+03
  0.000E+00  2.367E-01  1.013E+05 -1.281E-10 -9.201E-04  2.930E+02  1.095E+03
  0.000E+00  2.430E-01  1.013E+05 -8.615E-11 -9.111E-04  2.930E+02  1.098E+03
  0.000E+00  2.493E-01  1.013E+05 -5.104E-11 -9.128E-04  2.930E+02  1.102E+03
  0.000E+00  2.557E-01  1.013E+05 -3.555E-11 -9.191E-04  2.930E+02  1.105E+03
  0.000E+00  2.620E-01  1.013E+05 -3.613E-11 -9.199E-04  2.930E+02  1.108E+03
  0.000E+00  2.683E-01  1.013E+05 -3.342E-11 -9.087E-04  2.930E+02  1.111E+03
  0.000E+00  2.746E-01  1.013E+05 -9.742E-12 -8.961E-04  2.930E+02  1.114E+03
  0.000E+00  2.809E-01  1.013E+05  2.010E-11 -9.000E-04  2.930E+02  1.118E+03
  0.000E+00  2.872E-01  1.013E+05  2.711E-11 -9.143E-04  2.930E+02  1.121E+03
  0.000E+00  2.935E-01  1.013E+05  1.278E-11 -9.209E-04  2.930E+02  1.124E+03
  0.000E+00  2.998E-01  1.013E+05 -6.632E-12 -9.218E-04  2.930E+02  1.127E+03
  0.000E+00  3.062E-01  1.013E+05 -2.698E-11 -9.229E-04  2.930E+02  1.130E+03
  0.000E+00  3.125E-01  1.013E+05 -5.482E-11 -9.244E-04  2.930E+02  1.134E+03
  0.000E+00  3.188E-01  1.013E+05 -8.870E-11 -9.199E-04  2.930E+02  1.137E+03
  0.000E+00  3.251E-01  1.013E+05 -1.195E-10 -9.092E-04  2.930E+02  1.140E+03
  0.000E+00  3.314E-01  1.013E+05 -1.504E-10 -9.001E-04  2.930E+02  1.143E+03
  0.000E+00  3.377E-01  1.013E+05 -1.816E-10 -8.840E-04  2.930E+02  1.146E+03
  0.000E+00  3.440E-01  1.013E+05 -2.083E-10 -8.672E-04  2.930E+02  1.149E+03
  0.000E+00  3.503E-01  1.013E+05 -2.442E-10 -8.572E-04  2.930E+02  1.152E+03
  0.000E+00  3.567E-01  1.013E+05 -2.986E-10 -8.409E-04  2.930E+02  1.155E+03
  0.000E+00  3.630E-01  1.013E+05 -3.618E-10 -8.143E-04  2.930E+02  1.158E+03
  0.000E+00  3.693E-01  1.013E+05 -4.217E-10 -7.772E-04  2.930E+02  1.161E+03
  0.000E+00  3.756E-01  1.013E+05 -4.729E-10 -7.349E-04  2.930E+02  1.164E+03
  0.000E+00  3.819E-01  1.013E+05 -5.197E-10 -6.927E-04  2.930E+02  1.167E+03
  0.000E+00  3.882E-01  1.013E+05 -5.754E-10 -6.517E-04  2.930E+02  1.170E+03
  0.000E+00  3.945E-01  1.013E+05 -6.438E-10 -6.009E-04  2.930E+02  1.173E+03
  0.000E+00  4.008E-01  1.013E+05 -7.033E-10 -5.320E-04  2.930E+02  1.176E+03
  0.000E+00  4.072E-01  1.013E+05 -7.508E-10 -4.667E-04  2.930E+02  1.179E+03
  0.000E+00  4.135E-01  1.013E+05 -8.028E-10 -3.980E-04  2.930E+02  1.181E+03
  0.000E+00  4.198E-01  1.013E+05 -8.421E-10 -3.112E-04  2.930E+02  1.184E+03
  0.000E+00  4.261E-01  1.013E+05 -8.558E-10 -2.270E-04  2.930E+02  1.187E+03
  0.000E+00  4.324E-01  1.013E+05 -8.629E-10 -1.508E-04  2.930E+02  1.190E+03
  0.000E+00  4.387E-01  1.013E+05 -8.718E-10 -7.052E-05  2.930E+02  1.192E+03
  0.000E+00  4.450E-01  1.013E+05 -8.652E-10  1.879E-05  2.930E+02  1.195E+03
  0.000E+00  4.513E-01  1.013E+05 -8.306E-10  1.105E-04  2.930E+02  1.198E+03
  0.000E+00  4.577E-01  1.013E+05 -7.620E-10  1.999E-04  2.930E+02  1.200E+03
  0.000E+00  4.640E-01  1.013E+05 -6.574E-10  2.825E-04  2.930E+02  1.202E+03
  0.000E+00  4.703E-01  1.013E+05 -5.205E-10  3.514E-04  2.930E+02  1.204E+03
  0.000E+00  4.766E-01  1.013E+05 -3.486E-10  4.140E-04  2.930E+02  1.206E+03
  0.000E+00  4.829E-01  1.013E+05 -1.267E-10  4.725E-04  2.930E+02  1.208E+03
  0.000E+00  4.892E-01  1.013E+05  2.330E-10  5.455E-04  2.930E+02  1.209E+03
  0.000E+00  4.955E-01  1.013E+05  6.706E-10  4.475E-04  2.930E+02  1.210E+03
  0.000E+00  5.018E-01  1.013E+05  7.803E-10  1.137E-09  2.930E+02  1.211E+03
  0.000E+00  5.050E-01  1.013E+05  7.803E-10  1.137E-09  2.930E+02  1.211E+03
  6.203E-03  0.000E+00  1.013E+05  0.000E+00  0.000E+00  2.930E+02  2.930E+02
  6.203E-03  3.156E-03  1.013E+05  5.552E-10 -1.025E-03  2.930E+02  4.767E+02
  6.203E-03  9.469E-03  1.013E+05 -2.225E-10  6.167E-04  2.930E+02  8.166E+02
  6.203E-03  1.578E-02  1.013E+05  1.207E-09  3.601E-04  2.930E+02  1.098E+03
  6.203E-03  2.209E-02  1.013E+05  1.743E-09 -3.723E-05  2.930E+02  1.304E+03
  6.203E-03  2.841E-02  1.013E+05  1.934E-09 -3.754E-04  2.930E+02  1.427E+03
  6.203E-03  3.472E-02  1.013E+05  1.905E-09 -6.287E-04  2.930E+02  1.492E+03
  6.203E-03  4.103E-02  1.013E+05  1.805E-09 -8.247E-04  2.930E+02  1.526E+03
  6.203E-03  4.734E-02  1.013E+05  1.691E-09 -9.860E-04  2.930E+02  1.546E+03
  6.203E-03  5.366E-02  1.013E+05  1.587E-09 -1.121E-03  2.931E+02  1.560E+03
  6.203E-03  5.997E-02  1.013E+05  1.524E-09 -1.230E-03  2.933E+02  1.572E+03
  6.203E-03  6.628E-02  1.013E+05  1.518E-09 -1.335E-03  2.940E+02  1.583E+03
  6.203E-03  7.259E-02  1.013E+05  1.556E-09 -1.454E-03  2.964E+02  1.593E+03
  6.203E-03  7.891E-02  1.013E+05  1.624E-09 -1.605E-03  3.036E+02  1.603E+03
  6.203E-03  8.522E-02  1.013E+05  1.524E-09 -1.819E-03  3.218E+02  1.612E+03
  6.203E-03  9.153E-02  1.013E+05  1.803E-09 -1.731E-03  3.596E+02  1.621E+03
  6.203E-03  9.784E-02  1.013E+05  1.414E-09 -2.611E-03  3.218E+02  1.166E+03
  6.203E-03  1.042E-01  1.013E+05  3.683E-10 -2.410E-03  3.036E+02  1.070E+03
  6.203E-03  1.105E-01  1.013E+05 -9.281E-11 -2.325E-03  2.964E+02  1.051E+03
  6.203E-03  1.168E-01  1.013E+05 -4.590E-10 -2.223E-03  2.940E+02  1.048E+03
  6.203E-03  1.231E-01  1.013E+05 -6.973E-10 -2.105E-03  2.933E+02  1.048E+03
  6.203E-03  1.294E-01  1.013E+05 -8.366E-10 -1.980E-03  2.931E+02  1.050E+03
  6.203E-03  1.357E-01  1.013E+05 -9.100E-10 -1.869E-03  2.930E+02  1.052E+03
  6.203E-03  1.420E-01  1.013E+05 -9.416E-10 -1.754E-03  2.930E+02  1.054E+03
  6.203E-03  1.483E-01  1.013E+05 -9.296E-10 -1.643E-03  2.930E+02  1.056E+03
  6.203E-03  1.547E-01  1.013E+05 -8.955E-10 -1.549E-03  2.930E+02  1.058E+03
  6.203E-03  1.610E-01  1.013E+05 -8.547E-10 -1.457E-03  2.930E+02  1.061E+03
  6.203E-03  1.673E-01  1.013E+05 -8.012E-10 -1.369E-03  2.930E+02  1.063E+03
  6.203E-03  1.736E-01  1.013E+05 -7.332E-10 -1.290E-03  2.930E+02  1.066E+03
  6.203E-03  1.799E-01  1.013E+05 -6.620E-10 -1.226E-03  2.930E+02  1.068E+03
  6.203E-03  1.862E-01  1.013E+05 -5.990E-10 -1.172E-03  2.930E+02  1.071E+03
  6.203E-03  1.925E-01  1.013E+05 -5.369E-10 -1.114E-03  2.930E+02  1.074E+03
  6.203E-03  1.988E-01  1.013E+05 -4.603E-10 -1.061E-03  2.930E+02  1.077E+03
  6.203E-03  2.052E-01  1.013E+05 -3.727E-10 -1.022E-03  2.930E+02  1.080E+03
  6.203E-03  2.115E-01  1.013E+05 -3.031E-10 -1.005E-03  2.930E+02  1.083E+03
  6.203E-03  2.178E-01  1.013E+05 -2.654E-10 -9.861E-04  2.930E+02  1.086E+03
  6.203E-03  2.241E-01  1.013E+05 -2.266E-10 -9.524E-04  2.930E+02  1.089E+03
  6.203E-03  2.304E-01  1.013E+05 -1.749E-10 -9.317E-04  2.930E+02  1.092E+03
  6.203E-03  2.367E-01  1.013E+05 -1.281E-10 -9.201E-04  2.930E+02  1.095E+03
  6.203E-03  2.430E-01  1.013E+05 -8.615E-11 -9.111E-04  2.930E+02  1.098E+03
  6.203E-03  2.493E-01  1.013E+05 -5.104E-11 -9.128E-04  2.930E+02  1.102E+03
  6.203E-03  2.557E-01  1.013E+05 -3.555E-11 -9.191E-04  2.930E+02  1.105E+03
  6.203E-03  2.620E-01  1.013E+05 -3.613E-11 -9.199E-04  2.930E+02  1.108E+03
  6.203E-03  2.683E-01  1.013E+05 -3.342E-11 -9.087E-04  2.930E+02  1.111E+03
  6.203E-03  2.746E-01  1.013E+05 -9.742E-12 -8.961E-04  2.930E+02  1.114E+03
  6.203E-03  2.809E-01  1.013E+05  2.010E-11 -9.000E-04  2.930E+02  1.118E+03
  6.203E-03  2.872E-01  1.013E+05  2.711E-11 -9.143E-04  2.930E+02  1.121E+03
  6.203E-03  2.935E-01  1.013E+05  1.278E-11 -9.209E-04  2.930E+02  1.124E+03
  6.203E-03  2.998E-01  1.013E+05 -6.632E-12 -9.218E-04  2.930E+02  1.127E+03
  6.203E-03  3.062E-01  1.013E+05 -2.698E-11 -9.229E-04  2.930E+02  1.130E+03
  6.203E-03  3.125E-01  1.013E+05 -5.482E-11 -9.244E-04  2.930E+02  1.134E+03
  6.203E-03  3.188E-01  1.013E+05 -8.870E-11 -9.199E-04  2.930E+02  1.137E+03
  6.203E-03  3.251E-01  1.013E+05 -1.195E-10 -9.092E-04  2.930E+02  1.140E+03
  6.203E-03  3.314E-01  1.013E+05 -1.504E-10 -9.001E-04  2.930E+02  1.143E+03
  6.203E-03  3.377E-01  1.013E+05 -1.816E-10 -8.840E-04  2.930E+02  1.146E+03
  6.203E-03  3.440E-01  1.013E+05 -2.083E-10 -8.672E-04  2.930E+02  1.149E+03
  6.203E-03  3.503E-01  1.013E+05 -2.442E-10 -8.572E-04  2.930E+02  1.152E+03
  6.203E-03  3.567E-01  1.013E+05 -2.986E-10 -8.409E-04  2.930E+02  1.155E+03
  6.203E-03  3.630E-01  1.013E+05 -3.618E-10 -8.143E-04  2.930E+02  1.158E+03
  6.203E-03  3.693E-01  1.013E+05 -4.217E-10 -7.772E-04  2.930E+02  1.161E+03
  6.203E-03  3.756E-01  1.013E+05 -4.729E-10 -7.349E-04  2.930E+02  1.164E+03
  6.203E-03  3.819E-01  1.013E+05 -5.197E-10 -6.927E-04  2.930E+02  1.167E+03
  6.203E-03  3.882E-01  1.013E+05 -5.754E-10 -6.517E-04  2.930E+02  1.170E+03
  6.203E-03  3.945E-01  1.013E+05 -6.438E-10 -6.009E-04  2.930E+02  1.173E+03
  6.203E-03  4.008E-01  1.013E+05 -7.033E-10 -5.320E-04  2.930E+02  1.176E+03
  6.203E-03  4.072E-01  1.013E+05 -7.508E-10 -4.667E-04  2.930E+02  1.179E+03
  6.203E-03  4.135E-01  1.013E+05 -8.028E-10 -3.980E-04  2.930E+02  1.181E+03
  6.203E-03  4.198E-01  1.013E+05 -8.421E-10 -3.112E-04  2.930E+02  1.184E+03
  6.203E-03  4.261E-01  1.013E+05 -8.558E-10 -2.270E-04  2.930E+02  1.187E+03
  6.203E-03  4.324E-01  1.013E+05 -8.629E-10 -1.508E-04  2.930E+02  1.190E+03
  6.203E-03  4.387E-01  1.013E+05 -8.718E-10 -7.052E-05  2.930E+02  1.192E+03
  6.203E-03  4.450E-01  1.013E+05 -8.652E-10  1.879E-05  2.930E+02  1.195E+03
  6.203E-03  4.513E-01  1.013E+05 -8.306E-10  1.105E-04  2.930E+02  1.198E+03
  6.203E-03  4.577E-01  1.013E+05 -7.620E-10  1.999E-04  2.930E+02  1.200E+03
  6.203E-03  4.640E-01  1.013E+05 -6.574E-10  2.825E-04  2.930E+02  1.202E+03
  6.203E-03  4.703E-01  1.013E+05 -5.205E-10  3.514E-04  2.930E+02  1.204E+03
  6.203E-03  4.766E-01  1.013E+05 -3.486E-10  4.140E-04  2.930E+02  1.206E+03
  6.203E-03  4.829E-01  1.013E+05 -1.267E-10  4.725E-04  2.930E+02  1.208E+03
  6.203E-03  4.892E-01  1.013E+05  2.330E-10  5.455E-04  2.930E+02  1.209E+03
  6.203E-03  4.955E-01  1.013E+05  6.706E-10  4.475E-04  2.930E+02  1.210E+03
  6.203E-03  5.018E-01  1.013E+05  7.803E-10  1.137E-09  2.930E+02  1.211E+03
  6.203E-03  5.050E-01  1.013E+05  0.000E+00  1.137E-09  2.930E+02  1.211E+03
  1.861E-02  0.000E+00  1.013E+05  0.000E+00  0.000E+00  2.930E+02  2.930E+02
  1.861E-02  3.156E-03  1.013E+05  1.305E-09 -1.025E-03  2.930E+02  4.767E+02
  1.861E-02  9.469E-03  1.013E+05  4.469E-10  6.167E-04  2.930E+02  8.166E+02
  1.861E-02  1.578E-02  1.013E+05  1.991E-09  3.601E-04  2.930E+02  1.098E+03
  1.861E-02  2.209E-02  1.013E+05  2.628E-09 -3.722E-05  2.930E+02  1.304E+03
  1.861E-02  2.841E-02  1.013E+05  2.875E-09 -3.754E-04  2.930E+02  1.427E+03
  1.861E-02  3.472E-02  1.013E+05  2.847E-09 -6.287E-04  2.930E+02  1.492E+03
  1.861E-02  4.103E-02  1.013E+05  2.707E-09 -8.247E-04  2.930E+02  1.526E+03
  1.861E-02  4.734E-02  1.013E+05  2.532E-09 -9.860E-04  2.930E+02  1.546E+03
  1.861E-02  5.366E-02  1.013E+05  2.374E-09 -1.121E-03  2.931E+02  1.560E+03
  1.861E-02  5.997E-02  1.013E+05  2.271E-09 -1.230E-03  2.933E+02  1.572E+03
  1.861E-02  6.628E-02  1.013E+05  2.248E-09 -1.335E-03  2.940E+02  1.583E+03
  1.861E-02  7.259E-02  1.013E+05  2.275E-09 -1.454E-03  2.964E+02  1.593E+03
  1.861E-02  7.891E-02  1.013E+05  2.324E-09 -1.605E-03  3.036E+02  1.603E+03
  1.861E-02  8.522E-02  1.013E+05  2.180E-09 -1.819E-03  3.218E+02  1.612E+03
  1.861E-02  9.153E-02  1.013E+05  2.397E-09 -1.731E-03  3.596E+02  1.621E+03
  1.861E-02  9.784E-02  1.013E+05  1.851E-09 -2.611E-03  3.218E+02  1.166E+03
  1.861E-02  1.042E-01  1.013E+05  5.632E-10 -2.410E-03  3.036E+02  1.070E+03
  1.861E-02  1.105E-01  1.013E+05 -9.727E-11 -2.325E-03  2.964E+02  1.051E+03
  1.861E-02  1.168E-01  1.013E+05 -6.317E-10 -2.223E-03  2.940E+02  1.048E+03
  1.861E-02  1.231E-01  1.013E+05 -9.988E-10 -2.105E-03  2.933E+02  1.048E+03
  1.861E-02  1.294E-01  1.013E+05 -1.228E-09 -1.980E-03  2.931E+02  1.050E+03
  1.861E-02  1.357E-01  1.013E+05 -1.364E-09 -1.869E-03  2.930E+02  1.052E+03
  1.861E-02  1.420E-01  1.013E+05 -1.443E-09 -1.754E-03  2.930E+02  1.054E+03
  1.861E-02  1.483E-01  1.013E+05 -1.461E-09 -1.643E-03  2.930E+02  1.056E+03
  1.861E-02  1.547E-01  1.013E+05 -1.445E-09 -1.549E-03  2.930E+02  1.058E+03
  1.861E-02  1.610E-01  1.013E+05 -1.410E-09 -1.457E-03  2.930E+02  1.061E+03
  1.861E-02  1.673E-01  1.013E+05 -1.340E-09 -1.369E-03  2.930E+02  1.063E+03
  1.861E-02  1.736E-01  1.013E+05 -1.243E-09 -1.290E-03  2.930E+02  1.066E+03
  1.861E-02  1.799E-01  1.013E+05 -1.130E-09 -1.226E-03  2.930E+02  1.068E+03
  1.861E-02  1.862E-01  1.013E+05 -1.025E-09 -1.172E-03  2.930E+02  1.071E+03
  1.861E-02  1.925E-01  1.013E+05 -9.215E-10 -1.114E-03  2.930E+02  1.074E+03
  1.861E-02  1.988E-01  1.013E+05 -8.061E-10 -1.061E-03  2.930E+02  1.077E+03
  1.861E-02  2.052E-01  1.013E+05 -6.901E-10 -1.022E-03  2.930E+02  1.080E+03
  1.861E-02  2.115E-01  1.013E+05 -5.979E-10 -1.005E-03  2.930E+02  1.083E+03
  1.861E-02  2.178E-01  1.013E+05 -5.419E-10 -9.861E-04  2.930E+02  1.086E+03
  1.861E-02  2.241E-01  1.013E+05 -4.821E-10 -9.524E-04  2.930E+02  1.089E+03
  1.861E-02  2.304E-01  1.013E+05 -4.020E-10 -9.317E-04  2.930E+02  1.092E+03
  1.861E-02  2.367E-01  1.013E+05 -3.282E-10 -9.201E-04  2.930E+02  1.095E+03
  1.861E-02  2.430E-01  1.013E+05 -2.536E-10 -9.111E-04  2.930E+02  1.098E+03
  1.861E-02  2.493E-01  1.013E+05 -1.916E-10 -9.128E-04  2.930E+02  1.102E+03
  1.861E-02  2.557E-01  1.013E+05 -1.566E-10 -9.191E-04  2.930E+02  1.105E+03
  1.861E-02  2.620E-01  1.013E+05 -1.457E-10 -9.199E-04  2.930E+02  1.108E+03
  1.861E-02  2.683E-01  1.013E+05 -1.350E-10 -9.087E-04  2.930E+02  1.111E+03
  1.861E-02  2.746E-01  1.013E+05 -1.047E-10 -8.961E-04  2.930E+02  1.114E+03
  1.861E-02  2.809E-01  1.013E+05 -7.022E-11 -9.000E-04  2.930E+02  1.118E+03
  1.861E-02  2.872E-01  1.013E+05 -6.006E-11 -9.143E-04  2.930E+02  1.121E+03
  1.861E-02  2.935E-01  1.013E+05 -7.351E-11 -9.209E-04  2.930E+02  1.124E+03
  1.861E-02  2.998E-01  1.013E+05 -9.029E-11 -9.218E-04  2.930E+02  1.127E+03
  1.861E-02  3.062E-01  1.013E+05 -1.133E-10 -9.229E-04  2.930E+02  1.130E+03
  1.861E-02  3.125E-01  1.013E+05 -1.469E-10 -9.244E-04  2.930E+02  1.134E+03
  1.861E-02  3.188E-01  1.013E+05 -1.905E-10 -9.199E-04  2.930E+02  1.137E+03
  1.861E-02  3.251E-01  1.013E+05 -2.360E-10 -9.092E-04  2.930E+02  1.140E+03
  1.861E-02  3.314E-01  1.013E+05 -2.823E-10 -9.001E-04  2.930E+02  1.143E+03
  1.861E-02  3.377E-01  1.013E+05 -3.347E-10 -8.840E-04  2.930E+02  1.146E+03
  1.861E-02  3.440E-01  1.013E+05 -3.813E-10 -8.672E-04  2.930E+02  1.149E+03
  1.861E-02  3.503E-01  1.013E+05 -4.412E-10 -8.572E-04  2.930E+02  1.152E+03
  1.861E-02  3.567E-01  1.013E+05 -5.226E-10 -8.409E-04  2.930E+02  1.155E+03
  1.861E-02  3.630E-01  1.013E+05 -6.118E-10 -8.143E-04  2.930E+02  1.158E+03
  1.861E-02  3.693E-01  1.013E+05 -7.001E-10 -7.772E-04  2.930E+02  1.161E+03
  1.861E-02  3.756E-01  1.013E+05 -7.758E-10 -7.349E-04  2.930E+02  1.164E+03
  1.861E-02  3.819E-01  1.013E+05 -8.480E-10 -6.927E-04  2.930E+02  1.167E+03
  1.861E-02  3.882E-01  1.013E+05 -9.292E-10 -6.517E-04  2.930E+02  1.170E+03
  1.861E-02  3.945E-01  1.013E+05 -1.021E-09 -6.009E-04  2.930E+02  1.173E+03
  1.861E-02  4.008E-01  1.013E+05 -1.102E-09 -5.320E-04  2.930E+02  1.176E+03
  1.861E-02  4.072E-01  1.013E+05 -1.165E-09 -4.667E-04  2.930E+02  1.179E+03
  1.861E-02  4.135E-01  1.013E+05 -1.230E-09 -3.980E-04  2.930E+02  1.181E+03
  1.861E-02  4.198E-01  1.013E+05 -1.274E-09 -3.112E-04  2.930E+02  1.184E+03
  1.861E-02  4.261E-01  1.013E+05 -1.282E-09 -2.270E-04  2.930E+02  1.187E+03
  1.861E-02  4.324E-01  1.013E+05 -1.282E-09 -1.508E-04  2.930E+02  1.190E+03
  1.861E-02  4.387E-01  1.013E+05 -1.275E-09 -7.052E-05  2.930E+02  1.192E+03
  1.861E-02  4.450E-01  1.013E+05 -1.252E-09  1.879E-05  2.930E+02  1.195E+03
  1.861E-02  4.513E-01  1.013E+05 -1.191E-09  1.105E-04  2.930E+02  1.198E+03
  1.861E-02  4.577E-01  1.013E+05 -1.091E-09  1.999E-04  2.930E+02  1.200E+03
  1.861E-02  4.640E-01  1.013E+05 -9.436E-10  2.825E-04  2.930E+02  1.202E+03
  1.861E-02  4.703E-01  1.013E+05 -7.566E-10  3.514E-04  2.930E+02  1.204E+03
  1.861E-02  4.766E-01  1.013E+05 -5.194E-10  4.140E-04  2.930E+02  1.206E+03
  1.861E-02  4.829E-01  1.013E+05 -2.099E-10  4.725E-04  2.930E+02  1.208E+03
  1.861E-02  4.892E-01  1.013E+05  2.713E-10  5.455E-04  2.930E+02  1.209E+03
  1.861E-02  4.955E-01  1.013E+05  7.754E-10  4.475E-04  2.930E+02  1.210E+03
  1.861E-02  5.018E-01  1.013E+05  9.313E-10 -1.729E-09  2.930E+02  1.211E+03
  1.861E-02  5.050E-01  1.013E+05  0.000E+00 -1.729E-09  2.930E+02  1.211E+03
  3.102E-02  0.000E+00  1.013E+05  0.000E+00  0.000E+00  2.930E+02  2.930E+02
  3.102E-02  3.156E-03  1.013E+05  6.615E-10 -1.025E-03  2.930E+02  4.767E+02
  3.102E-02  9.469E-03  1.013E+05  7.215E-10  6.167E-04  2.930E+02  8.166E+02
  3.102E-02  1.578E-02  1.013E+05  9.702E-10  3.601E-04  2.930E+02  1.098E+03
  3.102E-02  2.209E-02  1.013E+05  1.212E-09 -3.722E-05  2.930E+02  1.304E+03
  3.102E-02  2.841E-02  1.013E+05  1.385E-09 -3.754E-04  2.930E+02  1.427E+03
  3.102E-02  3.472E-02  1.013E+05  1.477E-09 -6.287E-04  2.930E+02  1.492E+03
  3.102E-02  4.103E-02  1.013E+05  1.505E-09 -8.247E-04  2.930E+02  1.526E+03
  3.102E-02  4.734E-02  1.013E+05  1.489E-09 -9.860E-04  2.930E+02  1.546E+03
  3.102E-02  5.366E-02  1.013E+05  1.455E-09 -1.121E-03  2.931E+02  1.560E+03
  3.102E-02  5.997E-02  1.013E+05  1.407E-09 -1.230E-03  2.933E+02  1.572E+03
  3.102E-02  6.628E-02  1.013E+05  1.360E-09 -1.335E-03  2.940E+02  1.583E+03
  3.102E-02  7.259E-02  1.013E+05  1.303E-09 -1.454E-03  2.964E+02  1.593E+03
  3.102E-02  7.891E-02  1.013E+05  1.223E-09 -1.605E-03  3.036E+02  1.603E+03
  3.102E-02  8.522E-02  1.013E+05  1.112E-09 -1.819E-03  3.218E+02  1.612E+03
  3.102E-02  9.153E-02  1.013E+05  9.785E-10 -1.731E-03  3.596E+02  1.621E+03
  3.102E-02  9.784E-02  1.013E+05  7.192E-10 -2.611E-03  3.218E+02  1.166E+03
  3.102E-02  1.042E-01  1.013E+05  3.451E-10 -2.410E-03  3.036E+02  1.070E+03
  3.102E-02  1.105E-01  1.013E+05  2.892E-11 -2.325E-03  2.964E+02  1.051E+03
  3.102E-02  1.168E-01  1.013E+05 -2.328E-10 -2.223E-03  2.940E+02  1.048E+03
  3.102E-02  1.231E-01  1.013E+05 -4.363E-10 -2.105E-03  2.933E+02  1.048E+03
  3.102E-02  1.294E-01  1.013E+05 -5.913E-10 -1.980E-03  2.931E+02  1.050E+03
  3.102E-02  1.357E-01  1.013E+05 -6.995E-10 -1.869E-03  2.930E+02  1.052E+03
  3.102E-02  1.420E-01  1.013E+05 -7.794E-10 -1.754E-03  2.930E+02  1.054E+03
  3.102E-02  1.483E-01  1.013E+05 -8.285E-10 -1.643E-03  2.930E+02  1.056E+03
  3.102E-02  1.547E-01  1.013E+05 -8.448E-10 -1.549E-03  2.930E+02  1.058E+03
  3.102E-02  1.610E-01  1.013E+05 -8.412E-10 -1.457E-03  2.930E+02  1.061E+03
  3.102E-02  1.673E-01  1.013E+05 -8.011E-10 -1.369E-03  2.930E+02  1.063E+03
  3.102E-02  1.736E-01  1.013E+05 -7.479E-10 -1.290E-03  2.930E+02  1.066E+03
  3.102E-02  1.799E-01  1.013E+05 -6.803E-10 -1.226E-03  2.930E+02  1.068E+03
  3.102E-02  1.862E-01  1.013E+05 -6.143E-10 -1.172E-03  2.930E+02  1.071E+03
  3.102E-02  1.925E-01  1.013E+05 -5.542E-10 -1.114E-03  2.930E+02  1.074E+03
  3.102E-02  1.988E-01  1.013E+05 -4.944E-10 -1.061E-03  2.930E+02  1.077E+03
  3.102E-02  2.052E-01  1.013E+05 -4.469E-10 -1.022E-03  2.930E+02  1.080E+03
  3.102E-02  2.115E-01  1.013E+05 -4.036E-10 -1.005E-03  2.930E+02  1.083E+03
  3.102E-02  2.178E-01  1.013E+05 -3.620E-10 -9.861E-04  2.930E+02  1.086E+03
  3.102E-02  2.241E-01  1.013E+05 -3.228E-10 -9.524E-04  2.930E+02  1.089E+03
  3.102E-02  2.304E-01  1.013E+05 -2.721E-10 -9.317E-04  2.930E+02  1.092E+03
  3.102E-02  2.367E-01  1.013E+05 -2.254E-10 -9.201E-04  2.930E+02  1.095E+03
  3.102E-02  2.430E-01  1.013E+05 -1.761E-10 -9.111E-04  2.930E+02  1.098E+03
  3.102E-02  2.493E-01  1.013E+05 -1.356E-10 -9.128E-04  2.930E+02  1.102E+03
  3.102E-02  2.557E-01  1.013E+05 -1.063E-10 -9.191E-04  2.930E+02  1.105E+03
  3.102E-02  2.620E-01  1.013E+05 -8.775E-11 -9.199E-04  2.930E+02  1.108E+03
  3.102E-02  2.683E-01  1.013E+05 -7.404E-11 -9.087E-04  2.930E+02  1.111E+03
  3.102E-02  2.746E-01  1.013E+05 -6.133E-11 -8.961E-04  2.930E+02  1.114E+03
  3.102E-02  2.809E-01  1.013E+05 -5.182E-11 -9.000E-04  2.930E+02  1.118E+03
  3.102E-02  2.872E-01  1.013E+05 -4.462E-11 -9.143E-04  2.930E+02  1.121E+03
  3.102E-02  2.935E-01  1.013E+05 -4.546E-11 -9.209E-04  2.930E+02  1.124E+03
  3.102E-02  2.998E-01  1.013E+05 -4.582E-11 -9.218E-04  2.930E+02  1.127E+03
  3.102E-02  3.062E-01  1.013E+05 -5.433E-11 -9.229E-04  2.930E+02  1.130E+03
  3.102E-02  3.125E-01  1.013E+05 -6.828E-11 -9.244E-04  2.930E+02  1.134E+03
  3.102E-02  3.188E-01  1.013E+05 -8.678E-11 -9.199E-04  2.930E+02  1.137E+03
  3.102E-02  3.251E-01  1.013E+05 -1.152E-10 -9.092E-04  2.930E+02  1.140E+03
  3.102E-02  3.314E-01  1.013E+05 -1.422E-10 -9.001E-04  2.930E+02  1.143E+03
  3.102E-02  3.377E-01  1.013E+05 -1.778E-10 -8.840E-04  2.930E+02  1.146E+03
  3.102E-02  3.440E-01  1.013E+05 -2.131E-10 -8.672E-04  2.930E+02  1.149E+03
  3.102E-02  3.503E-01  1.013E+05 -2.519E-10 -8.572E-04  2.930E+02  1.152E+03
  3.102E-02  3.567E-01  1.013E+05 -2.975E-10 -8.409E-04  2.930E+02  1.155E+03
  3.102E-02  3.630E-01  1.013E+05 -3.423E-10 -8.143E-04  2.930E+02  1.158E+03
  3.102E-02  3.693E-01  1.013E+05 -3.913E-10 -7.772E-04  2.930E+02  1.161E+03
  3.102E-02  3.756E-01  1.013E+05 -4.356E-10 -7.349E-04  2.930E+02  1.164E+03
  3.102E-02  3.819E-01  1.013E+05 -4.827E-10 -6.927E-04  2.930E+02  1.167E+03
  3.102E-02  3.882E-01  1.013E+05 -5.331E-10 -6.517E-04  2.930E+02  1.170E+03
  3.102E-02  3.945E-01  1.013E+05 -5.802E-10 -6.009E-04  2.930E+02  1.173E+03
  3.102E-02  4.008E-01  1.013E+05 -6.302E-10 -5.320E-04  2.930E+02  1.176E+03
  3.102E-02  4.072E-01  1.013E+05 -6.724E-10 -4.667E-04  2.930E+02  1.179E+03
  3.102E-02  4.135E-01  1.013E+05 -7.098E-10 -3.980E-04  2.930E+02  1.181E+03
  3.102E-02  4.198E-01  1.013E+05 -7.391E-10 -3.112E-04  2.930E+02  1.184E+03
  3.102E-02  4.261E-01  1.013E+05 -7.496E-10 -2.270E-04  2.930E+02  1.187E+03
  3.102E-02  4.324E-01  1.013E+05 -7.525E-10 -1.508E-04  2.930E+02  1.190E+03
  3.102E-02  4.387E-01  1.013E+05 -7.349E-10 -7.052E-05  2.930E+02  1.192E+03
  3.102E-02  4.450E-01  1.013E+05 -7.049E-10  1.879E-05  2.930E+02  1.195E+03
  3.102E-02  4.513E-01  1.013E+05 -6.470E-10  1.105E-04  2.930E+02  1.198E+03
  3.102E-02  4.577E-01  1.013E+05 -5.704E-10  1.999E-04  2.930E+02  1.200E+03
  3.102E-02  4.640E-01  1.013E+05 -4.737E-10  2.825E-04  2.930E+02  1.202E+03
  3.102E-02  4.703E-01  1.013E+05 -3.734E-10  3.514E-04  2.930E+02  1.204E+03
  3.102E-02  4.766E-01  1.013E+05 -2.704E-10  4.140E-04  2.930E+02  1.206E+03
  3.102E-02  4.829E-01  1.013E+05 -1.492E-10  4.725E-04  2.930E+02  1.208E+03
  3.102E-02  4.892E-01  1.013E+05  1.988E-11  5.455E-04  2.930E+02  1.209E+03
  3.102E-02  4.955E-01  1.013E+05  1.143E-10  4.475E-04  2.930E+02  1.210E+03
  3.102E-02  5.018E-01  1.013E+05  1.902E-10 -2.190E-09  2.930E+02  1.211E+03
  3.102E-02  5.050E-01  1.013E+05  0.000E+00 -2.190E-09  2.930E+02  1.211E+03
  4.342E-02  0.000E+00  1.013E+05  0.000E+00  0.000E+00  2.930E+02  2.930E+02
  4.342E-02  3.156E-03  1.013E+05  6.337E-10 -1.025E-03  2.930E+02  4.767E+02
  4.342E-02  9.469E-03  1.013E+05  5.628E-10  6.167E-04  2.930E+02  8.166E+02
  4.342E-02  1.578E-02  1.013E+05  6.114E-10  3.601E-04  2.930E+02  1.098E+03
  4.342E-02  2.209E-02  1.013E+05  6.967E-10 -3.722E-05  2.930E+02  1.304E+03
  4.342E-02  2.841E-02  1.013E+05  7.691E-10 -3.754E-04  2.930E+02  1.427E+03
  4.342E-02  3.472E-02  1.013E+05  8.225E-10 -6.287E-04  2.930E+02  1.492E+03
  4.342E-02  4.103E-02  1.013E+05  8.617E-10 -8.247E-04  2.930E+02  1.526E+03
  4.342E-02  4.734E-02  1.013E+05  8.864E-10 -9.860E-04  2.930E+02  1.546E+03
  4.342E-02  5.366E-02  1.013E+05  9.108E-10 -1.121E-03  2.931E+02  1.560E+03
  4.342E-02  5.997E-02  1.013E+05  9.215E-10 -1.230E-03  2.933E+02  1.572E+03
  4.342E-02  6.628E-02  1.013E+05  9.245E-10 -1.335E-03  2.940E+02  1.583E+03
  4.342E-02  7.259E-02  1.013E+05  9.104E-10 -1.454E-03  2.964E+02  1.593E+03
  4.342E-02  7.891E-02  1.013E+05  8.661E-10 -1.605E-03  3.036E+02  1.603E+03
  4.342E-02  8.522E-02  1.013E+05  8.085E-10 -1.819E-03  3.218E+02  1.612E+03
  4.342E-02  9.153E-02  1.013E+05  7.198E-10 -1.731E-03  3.596E+02  1.621E+03
  4.342E-02  9.784E-02  1.013E+05  5.811E-10 -2.611E-03  3.218E+02  1.166E+03
  4.342E-02  1.042E-01  1.013E+05  3.957E-10 -2.410E-03  3.036E+02  1.070E+03
  4.342E-02  1.105E-01  1.013E+05  2.232E-10 -2.325E-03  2.964E+02  1.051E+03
  4.342E-02  1.168E-01  1.013E+05  7.116E-11 -2.223E-03  2.940E+02  1.048E+03
  4.342E-02  1.231E-01  1.013E+05 -5.846E-11 -2.105E-03  2.933E+02  1.048E+03
  4.342E-02  1.294E-01  1.013E+05 -1.725E-10 -1.980E-03  2.931E+02  1.050E+03
  4.342E-02  1.357E-01  1.013E+05 -2.610E-10 -1.869E-03  2.930E+02  1.052E+03
  4.342E-02  1.420E-01  1.013E+05 -3.352E-10 -1.754E-03  2.930E+02  1.054E+03
  4.342E-02  1.483E-01  1.013E+05 -3.904E-10 -1.643E-03  2.930E+02  1.056E+03
  4.342E-02  1.547E-01  1.013E+05 -4.190E-10 -1.549E-03  2.930E+02  1.058E+03
  4.342E-02  1.610E-01  1.013E+05 -4.359E-10 -1.457E-03  2.930E+02  1.061E+03
  4.342E-02  1.673E-01  1.013E+05 -4.217E-10 -1.369E-03  2.930E+02  1.063E+03
  4.342E-02  1.736E-01  1.013E+05 -4.011E-10 -1.290E-03  2.930E+02  1.066E+03
  4.342E-02  1.799E-01  1.013E+05 -3.706E-10 -1.226E-03  2.930E+02  1.068E+03
  4.342E-02  1.862E-01  1.013E+05 -3.421E-10 -1.172E-03  2.930E+02  1.071E+03
  4.342E-02  1.925E-01  1.013E+05 -3.193E-10 -1.114E-03  2.930E+02  1.074E+03
  4.342E-02  1.988E-01  1.013E+05 -2.924E-10 -1.061E-03  2.930E+02  1.077E+03
  4.342E-02  2.052E-01  1.013E+05 -2.743E-10 -1.022E-03  2.930E+02  1.080E+03
  4.342E-02  2.115E-01  1.013E+05 -2.540E-10 -1.005E-03  2.930E+02  1.083E+03
  4.342E-02  2.178E-01  1.013E+05 -2.273E-10 -9.861E-04  2.930E+02  1.086E+03
  4.342E-02  2.241E-01  1.013E+05 -2.036E-10 -9.524E-04  2.930E+02  1.089E+03
  4.342E-02  2.304E-01  1.013E+05 -1.700E-10 -9.317E-04  2.930E+02  1.092E+03
  4.342E-02  2.367E-01  1.013E+05 -1.429E-10 -9.201E-04  2.930E+02  1.095E+03
  4.342E-02  2.430E-01  1.013E+05 -1.142E-10 -9.111E-04  2.930E+02  1.098E+03
  4.342E-02  2.493E-01  1.013E+05 -9.347E-11 -9.128E-04  2.930E+02  1.102E+03
  4.342E-02  2.557E-01  1.013E+05 -8.091E-11 -9.191E-04  2.930E+02  1.105E+03
  4.342E-02  2.620E-01  1.013E+05 -7.547E-11 -9.199E-04  2.930E+02  1.108E+03
  4.342E-02  2.683E-01  1.013E+05 -7.191E-11 -9.087E-04  2.930E+02  1.111E+03
  4.342E-02  2.746E-01  1.013E+05 -6.772E-11 -8.961E-04  2.930E+02  1.114E+03
  4.342E-02  2.809E-01  1.013E+05 -6.509E-11 -9.000E-04  2.930E+02  1.118E+03
  4.342E-02  2.872E-01  1.013E+05 -6.003E-11 -9.143E-04  2.930E+02  1.121E+03
  4.342E-02  2.935E-01  1.013E+05 -6.022E-11 -9.209E-04  2.930E+02  1.124E+03
  4.342E-02  2.998E-01  1.013E+05 -5.756E-11 -9.218E-04  2.930E+02  1.127E+03
  4.342E-02  3.062E-01  1.013E+05 -6.216E-11 -9.229E-04  2.930E+02  1.130E+03
  4.342E-02  3.125E-01  1.013E+05 -7.109E-11 -9.244E-04  2.930E+02  1.134E+03
  4.342E-02  3.188E-01  1.013E+05 -8.186E-11 -9.199E-04  2.930E+02  1.137E+03
  4.342E-02  3.251E-01  1.013E+05 -1.032E-10 -9.092E-04  2.930E+02  1.140E+03
  4.342E-02  3.314E-01  1.013E+05 -1.205E-10 -9.001E-04  2.930E+02  1.143E+03
  4.342E-02  3.377E-01  1.013E+05 -1.449E-10 -8.840E-04  2.930E+02  1.146E+03