VARIABLES="XP","YP","P","U","V","TS","TF"
ZONE T="Zone 001"I=    82 J=    12 F=POINT
  0.000E+00  0.000E+00  1.019E+05  1.969E-06  6.502E-02  2.935E+02  2.930E+02
  0.000E+00  3.156E-03  1.019E+05  1.969E-06  6.502E-02  2.935E+02  2.930E+02
  0.000E+00  9.469E-03  1.019E+05  1.195E-06  6.500E-02  2.947E+02  2.930E+02
  0.000E+00  1.578E-02  1.019E+05  2.501E-08  6.500E-02  2.963E+02  2.930E+02
  0.000E+00  2.209E-02  1.019E+05  2.445E-06  6.500E-02  2.985E+02  2.930E+02
  0.000E+00  2.841E-02  1.019E+05  2.398E-05  6.500E-02  3.017E+02  2.930E+02
  0.000E+00  3.472E-02  1.019E+05  2.566E-06  6.501E-02  3.063E+02  2.930E+02
  0.000E+00  4.103E-02  1.019E+05  3.655E-07  6.500E-02  3.128E+02  2.930E+02
  0.000E+00  4.734E-02  1.019E+05  8.814E-07  6.500E-02  3.216E+02  2.930E+02
  0.000E+00  5.366E-02  1.019E+05  1.012E-06  6.500E-02  3.332E+02  2.930E+02
  0.000E+00  5.997E-02  1.018E+05  7.600E-07  6.500E-02  3.475E+02  2.930E+02
  0.000E+00  6.628E-02  1.018E+05  3.590E-07  6.500E-02  3.642E+02  2.930E+02
  0.000E+00  7.259E-02  1.018E+05  4.615E-07  6.500E-02  3.816E+02  2.930E+02
  0.000E+00  7.891E-02  1.018E+05  4.801E-07  6.500E-02  3.975E+02  2.930E+02
  0.000E+00  8.522E-02  1.018E+05  3.710E-07  6.500E-02  4.089E+02  2.930E+02
  0.000E+00  9.153E-02  1.018E+05  9.656E-07  6.500E-02  4.130E+02  2.930E+02
  0.000E+00  9.784E-02  1.018E+05  1.421E-06  6.500E-02  4.089E+02  2.930E+02
  0.000E+00  1.042E-01  1.018E+05  1.023E-06  6.501E-02  3.975E+02  2.930E+02
  0.000E+00  1.105E-01  1.018E+05  6.426E-07  6.500E-02  3.816E+02  2.930E+02
  0.000E+00  1.168E-01  1.018E+05  5.440E-07  6.500E-02  3.642E+02  2.930E+02
  0.000E+00  1.231E-01  1.018E+05  2.897E-07  6.500E-02  3.475E+02  2.930E+02
  0.000E+00  1.294E-01  1.018E+05  4.588E-07  6.500E-02  3.332E+02  2.930E+02
  0.000E+00  1.357E-01  1.018E+05  5.007E-07  6.500E-02  3.216E+02  2.930E+02
  0.000E+00  1.420E-01  1.017E+05  6.794E-07  6.500E-02  3.128E+02  2.930E+02
  0.000E+00  1.483E-01  1.017E+05  1.230E-06  6.500E-02  3.064E+02  2.930E+02
  0.000E+00  1.547E-01  1.017E+05  2.648E-06  6.500E-02  3.018E+02  2.930E+02
  0.000E+00  1.610E-01  1.017E+05  1.136E-07  6.501E-02  2.986E+02  2.930E+02
  0.000E+00  1.673E-01  1.017E+05 -2.121E-05  6.500E-02  2.965E+02  2.930E+02
  0.000E+00  1.736E-01  1.017E+05 -6.991E-07  6.500E-02  2.952E+02  2.930E+02
  0.000E+00  1.799E-01  1.017E+05  8.852E-07  6.500E-02  2.943E+02  2.930E+02
  0.000E+00  1.862E-01  1.017E+05  3.535E-07  6.500E-02  2.938E+02  2.930E+02
  0.000E+00  1.925E-01  1.017E+05  2.892E-07  6.500E-02  2.934E+02  2.930E+02
  0.000E+00  1.988E-01  1.017E+05  2.274E-07  6.500E-02  2.932E+02  2.930E+02
  0.000E+00  2.052E-01  1.017E+05  1.972E-07  6.500E-02  2.931E+02  2.930E+02
  0.000E+00  2.115E-01  1.017E+05  1.765E-07  6.500E-02  2.931E+02  2.930E+02
  0.000E+00  2.178E-01  1.017E+05  1.612E-07  6.500E-02  2.930E+02  2.930E+02
  0.000E+00  2.241E-01  1.017E+05  1.484E-07  6.500E-02  2.930E+02  2.930E+02
  0.000E+00  2.304E-01  1.016E+05  1.376E-07  6.500E-02  2.930E+02  2.930E+02
  0.000E+00  2.367E-01  1.016E+05  1.278E-07  6.500E-02  2.930E+02  2.930E+02
  0.000E+00  2.430E-01  1.016E+05  1.218E-07  6.500E-02  2.930E+02  2.930E+02
  0.000E+00  2.493E-01  1.016E+05  1.049E-07  6.500E-02  2.930E+02  2.930E+02
  0.000E+00  2.557E-01  1.016E+05  1.048E-07  6.501E-02  2.930E+02  2.930E+02
  0.000E+00  2.620E-01  1.016E+05  9.913E-08  6.500E-02  2.930E+02  2.930E+02
  0.000E+00  2.683E-01  1.016E+05  9.221E-08  6.499E-02  2.930E+02  2.930E+02
  0.000E+00  2.746E-01  1.016E+05  6.640E-08  6.499E-02  2.930E+02  2.930E+02
  0.000E+00  2.809E-01  1.016E+05  8.012E-08  6.500E-02  2.930E+02  2.930E+02
  0.000E+00  2.872E-01  1.016E+05  6.741E-08  6.500E-02  2.930E+02  2.930E+02
  0.000E+00  2.935E-01  1.016E+05  6.191E-08  6.500E-02  2.930E+02  2.930E+02
  0.000E+00  2.998E-01  1.016E+05  5.487E-08  6.500E-02  2.930E+02  2.930E+02
  0.000E+00  3.062E-01  1.016E+05  4.914E-08  6.500E-02  2.930E+02  2.930E+02
  0.000E+00  3.125E-01  1.015E+05  4.406E-08  6.500E-02  2.930E+02  2.930E+02
  0.000E+00  3.188E-01  1.015E+05  3.965E-08  6.500E-02  2.930E+02  2.930E+02
  0.000E+00  3.251E-01  1.015E+05  3.572E-08  6.500E-02  2.930E+02  2.930E+02
  0.000E+00  3.314E-01  1.015E+05  3.226E-08  6.501E-02  2.930E+02  2.930E+02
  0.000E+00  3.377E-01  1.015E+05  2.910E-08  6.500E-02  2.930E+02  2.930E+02
  0.000E+00  3.440E-01  1.015E+05  2.623E-08  6.500E-02  2.930E+02  2.930E+02
  0.000E+00  3.503E-01  1.015E+05  2.356E-08  6.500E-02  2.930E+02  2.930E+02
  0.000E+00  3.567E-01  1.015E+05  2.109E-08  6.500E-02  2.930E+02  2.930E+02
  0.000E+00  3.630E-01  1.015E+05  1.881E-08  6.500E-02  2.930E+02  2.930E+02
  0.000E+00  3.693E-01  1.015E+05  1.667E-08  6.500E-02  2.930E+02  2.930E+02
  0.000E+00  3.756E-01  1.015E+05  1.471E-08  6.500E-02  2.930E+02  2.930E+02
  0.000E+00  3.819E-01  1.015E+05  1.297E-08  6.500E-02  2.930E+02  2.930E+02
  0.000E+00  3.882E-01  1.015E+05  1.143E-08  6.500E-02  2.930E+02  2.930E+02
  0.000E+00  3.945E-01  1.015E+05  1.000E-08  6.500E-02  2.930E+02  2.930E+02
  0.000E+00  4.008E-01  1.014E+05  8.733E-09  6.500E-02  2.930E+02  2.930E+02
  0.000E+00  4.072E-01  1.014E+05  7.662E-09  6.500E-02  2.930E+02  2.930E+02
  0.000E+00  4.135E-01  1.014E+05  6.739E-09  6.500E-02  2.930E+02  2.930E+02
  0.000E+00  4.198E-01  1.014E+05  6.006E-09  6.500E-02  2.930E+02  2.930E+02
  0.000E+00  4.261E-01  1.014E+05  5.502E-09  6.500E-02  2.930E+02  2.930E+02
  0.000E+00  4.324E-01  1.014E+05  5.324E-09  6.500E-02  2.930E+02  2.930E+02
  0.000E+00  4.387E-01  1.014E+05  5.637E-09  6.500E-02  2.930E+02  2.930E+02
  0.000E+00  4.450E-01  1.014E+05  6.888E-09  6.500E-02  2.930E+02  2.930E+02
  0.000E+00  4.513E-01  1.014E+05  9.695E-09  6.500E-02  2.930E+02  2.930E+02
  0.000E+00  4.577E-01  1.014E+05  1.551E-08  6.500E-02  2.930E+02  2.930E+02
  0.000E+00  4.640E-01  1.014E+05  2.513E-08  6.500E-02  2.930E+02  2.930E+02
  0.000E+00  4.703E-01  1.014E+05  5.353E-08  6.500E-02  2.930E+02  2.930E+02
  0.000E+00  4.766E-01  1.014E+05  3.855E-08  6.500E-02  2.930E+02  2.930E+02
  0.000E+00  4.829E-01  1.014E+05  4.495E-07  6.500E-02  2.930E+02  2.930E+02
  0.000E+00  4.892E-01  1.013E+05 -1.670E-06  6.501E-02  2.930E+02  2.930E+02
  0.000E+00  4.955E-01  1.013E+05 -2.319E-05  6.499E-02  2.930E+02  2.930E+02
  0.000E+00  5.018E-01  1.013E+05 -2.931E-07  6.498E-02  2.930E+02  2.930E+02
  0.000E+00  5.050E-01  1.013E+05 -2.931E-07  6.498E-02  2.930E+02  2.930E+02
  6.203E-03  0.000E+00  1.019E+05  0.000E+00  6.500E-02  2.930E+02  2.930E+02
  6.203E-03  3.156E-03  1.019E+05  1.969E-06  6.502E-02  2.935E+02  2.930E+02
  6.203E-03  9.469E-03  1.019E+05  1.195E-06  6.500E-02  2.947E+02  2.930E+02
  6.203E-03  1.578E-02  1.019E+05  2.501E-08  6.500E-02  2.963E+02  2.930E+02
  6.203E-03  2.209E-02  1.019E+05  2.445E-06  6.500E-02  2.985E+02  2.930E+02
  6.203E-03  2.841E-02  1.019E+05  2.398E-05  6.500E-02  3.017E+02  2.930E+02
  6.203E-03  3.472E-02  1.019E+05  2.566E-06  6.501E-02  3.063E+02  2.930E+02
  6.203E-03  4.103E-02  1.019E+05  3.655E-07  6.500E-02  3.128E+02  2.930E+02
  6.203E-03  4.734E-02  1.019E+05  8.814E-07  6.500E-02  3.216E+02  2.930E+02
  6.203E-03  5.366E-02  1.019E+05  1.012E-06  6.500E-02  3.332E+02  2.930E+02
  6.203E-03  5.997E-02  1.018E+05  7.600E-07  6.500E-02  3.475E+02  2.930E+02
  6.203E-03  6.628E-02  1.018E+05  3.590E-07  6.500E-02  3.642E+02  2.930E+02
  6.203E-03  7.259E-02  1.018E+05  4.615E-07  6.500E-02  3.816E+02  2.930E+02
  6.203E-03  7.891E-02  1.018E+05  4.801E-07  6.500E-02  3.975E+02  2.930E+02
  6.203E-03  8.522E-02  1.018E+05  3.710E-07  6.500E-02  4.089E+02  2.930E+02
  6.203E-03  9.153E-02  1.018E+05  9.656E-07  6.500E-02  4.130E+02  2.930E+02
  6.203E-03  9.784E-02  1.018E+05  1.421E-06  6.500E-02  4.089E+02  2.930E+02
  6.203E-03  1.042E-01  1.018E+05  1.023E-06  6.501E-02  3.975E+02  2.930E+02
  6.203E-03  1.105E-01  1.018E+05  6.426E-07  6.500E-02  3.816E+02  2.930E+02
  6.203E-03  1.168E-01  1.018E+05  5.440E-07  6.500E-02  3.642E+02  2.930E+02
  6.203E-03  1.231E-01  1.018E+05  2.897E-07  6.500E-02  3.475E+02  2.930E+02
  6.203E-03  1.294E-01  1.018E+05  4.588E-07  6.500E-02  3.332E+02  2.930E+02
  6.203E-03  1.357E-01  1.018E+05  5.007E-07  6.500E-02  3.216E+02  2.930E+02
  6.203E-03  1.420E-01  1.017E+05  6.794E-07  6.500E-02  3.128E+02  2.930E+02
  6.203E-03  1.483E-01  1.017E+05  1.230E-06  6.500E-02  3.064E+02  2.930E+02
  6.203E-03  1.547E-01  1.017E+05  2.648E-06  6.500E-02  3.018E+02  2.930E+02
  6.203E-03  1.610E-01  1.017E+05  1.136E-07  6.501E-02  2.986E+02  2.930E+02
  6.203E-03  1.673E-01  1.017E+05 -2.121E-05  6.500E-02  2.965E+02  2.930E+02
  6.203E-03  1.736E-01  1.017E+05 -6.991E-07  6.500E-02  2.952E+02  2.930E+02
  6.203E-03  1.799E-01  1.017E+05  8.852E-07  6.500E-02  2.943E+02  2.930E+02
  6.203E-03  1.862E-01  1.017E+05  3.535E-07  6.500E-02  2.938E+02  2.930E+02
  6.203E-03  1.925E-01  1.017E+05  2.892E-07  6.500E-02  2.934E+02  2.930E+02
  6.203E-03  1.988E-01  1.017E+05  2.274E-07  6.500E-02  2.932E+02  2.930E+02
  6.203E-03  2.052E-01  1.017E+05  1.972E-07  6.500E-02  2.931E+02  2.930E+02
  6.203E-03  2.115E-01  1.017E+05  1.765E-07  6.500E-02  2.931E+02  2.930E+02
  6.203E-03  2.178E-01  1.017E+05  1.612E-07  6.500E-02  2.930E+02  2.930E+02
  6.203E-03  2.241E-01  1.017E+05  1.484E-07  6.500E-02  2.930E+02  2.930E+02
  6.203E-03  2.304E-01  1.016E+05  1.376E-07  6.500E-02  2.930E+02  2.930E+02
  6.203E-03  2.367E-01  1.016E+05  1.278E-07  6.500E-02  2.930E+02  2.930E+02
  6.203E-03  2.430E-01  1.016E+05  1.218E-07  6.500E-02  2.930E+02  2.930E+02
  6.203E-03  2.493E-01  1.016E+05  1.049E-07  6.500E-02  2.930E+02  2.930E+02
  6.203E-03  2.557E-01  1.016E+05  1.048E-07  6.501E-02  2.930E+02  2.930E+02
  6.203E-03  2.620E-01  1.016E+05  9.913E-08  6.500E-02  2.930E+02  2.930E+02
  6.203E-03  2.683E-01  1.016E+05  9.221E-08  6.499E-02  2.930E+02  2.930E+02
  6.203E-03  2.746E-01  1.016E+05  6.640E-08  6.499E-02  2.930E+02  2.930E+02
  6.203E-03  2.809E-01  1.016E+05  8.012E-08  6.500E-02  2.930E+02  2.930E+02
  6.203E-03  2.872E-01  1.016E+05  6.741E-08  6.500E-02  2.930E+02  2.930E+02
  6.203E-03  2.935E-01  1.016E+05  6.191E-08  6.500E-02  2.930E+02  2.930E+02
  6.203E-03  2.998E-01  1.016E+05  5.487E-08  6.500E-02  2.930E+02  2.930E+02
  6.203E-03  3.062E-01  1.016E+05  4.914E-08  6.500E-02  2.930E+02  2.930E+02
  6.203E-03  3.125E-01  1.015E+05  4.406E-08  6.500E-02  2.930E+02  2.930E+02
  6.203E-03  3.188E-01  1.015E+05  3.965E-08  6.500E-02  2.930E+02  2.930E+02
  6.203E-03  3.251E-01  1.015E+05  3.572E-08  6.500E-02  2.930E+02  2.930E+02
  6.203E-03  3.314E-01  1.015E+05  3.226E-08  6.501E-02  2.930E+02  2.930E+02
  6.203E-03  3.377E-01  1.015E+05  2.910E-08  6.500E-02  2.930E+02  2.930E+02
  6.203E-03  3.440E-01  1.015E+05  2.623E-08  6.500E-02  2.930E+02  2.930E+02
  6.203E-03  3.503E-01  1.015E+05  2.356E-08  6.500E-02  2.930E+02  2.930E+02
  6.203E-03  3.567E-01  1.015E+05  2.109E-08  6.500E-02  2.930E+02  2.930E+02
  6.203E-03  3.630E-01  1.015E+05  1.881E-08  6.500E-02  2.930E+02  2.930E+02
  6.203E-03  3.693E-01  1.015E+05  1.667E-08  6.500E-02  2.930E+02  2.930E+02
  6.203E-03  3.756E-01  1.015E+05  1.471E-08  6.500E-02  2.930E+02  2.930E+02
  6.203E-03  3.819E-01  1.015E+05  1.297E-08  6.500E-02  2.930E+02  2.930E+02
  6.203E-03  3.882E-01  1.015E+05  1.143E-08  6.500E-02  2.930E+02  2.930E+02
  6.203E-03  3.945E-01  1.015E+05  1.000E-08  6.500E-02  2.930E+02  2.930E+02
  6.203E-03  4.008E-01  1.014E+05  8.733E-09  6.500E-02  2.930E+02  2.930E+02
  6.203E-03  4.072E-01  1.014E+05  7.662E-09  6.500E-02  2.930E+02  2.930E+02
  6.203E-03  4.135E-01  1.014E+05  6.739E-09  6.500E-02  2.930E+02  2.930E+02
  6.203E-03  4.198E-01  1.014E+05  6.006E-09  6.500E-02  2.930E+02  2.930E+02
  6.203E-03  4.261E-01  1.014E+05  5.502E-09  6.500E-02  2.930E+02  2.930E+02
  6.203E-03  4.324E-01  1.014E+05  5.324E-09  6.500E-02  2.930E+02  2.930E+02
  6.203E-03  4.387E-01  1.014E+05  5.637E-09  6.500E-02  2.930E+02  2.930E+02
  6.203E-03  4.450E-01  1.014E+05  6.888E-09  6.500E-02  2.930E+02  2.930E+02
  6.203E-03  4.513E-01  1.014E+05  9.695E-09  6.500E-02  2.930E+02  2.930E+02
  6.203E-03  4.577E-01  1.014E+05  1.551E-08  6.500E-02  2.930E+02  2.930E+02
  6.203E-03  4.640E-01  1.014E+05  2.513E-08  6.500E-02  2.930E+02  2.930E+02
  6.203E-03  4.703E-01  1.014E+05  5.353E-08  6.500E-02  2.930E+02  2.930E+02
  6.203E-03  4.766E-01  1.014E+05  3.855E-08  6.500E-02  2.930E+02  2.930E+02
  6.203E-03  4.829E-01  1.014E+05  4.495E-07  6.500E-02  2.930E+02  2.930E+02
  6.203E-03  4.892E-01  1.013E+05 -1.670E-06  6.501E-02  2.930E+02  2.930E+02
  6.203E-03  4.955E-01  1.013E+05 -2.319E-05  6.499E-02  2.930E+02  2.930E+02
  6.203E-03  5.018E-01  1.013E+05 -2.931E-07  6.498E-02  2.930E+02  2.930E+02
  6.203E-03  5.050E-01  1.013E+05  0.000E+00  6.498E-02  2.930E+02  2.930E+02
  1.861E-02  0.000E+00  1.019E+05  0.000E+00  6.500E-02  2.930E+02  2.930E+02
  1.861E-02  3.156E-03  1.019E+05  8.467E-06  6.502E-02  2.935E+02  2.930E+02
  1.861E-02  9.469E-03  1.019E+05  3.075E-06  6.500E-02  2.947E+02  2.930E+02
  1.861E-02  1.578E-02  1.019E+05  1.133E-06  6.500E-02  2.963E+02  2.930E+02
  1.861E-02  2.209E-02  1.019E+05  4.073E-06  6.501E-02  2.985E+02  2.930E+02
  1.861E-02  2.841E-02  1.019E+05  8.288E-06  6.500E-02  3.017E+02  2.930E+02
  1.861E-02  3.472E-02  1.019E+05  3.919E-06  6.500E-02  3.063E+02  2.930E+02
  1.861E-02  4.103E-02  1.019E+05  1.340E-06  6.500E-02  3.128E+02  2.930E+02
  1.861E-02  4.734E-02  1.019E+05  1.766E-06  6.500E-02  3.216E+02  2.930E+02
  1.861E-02  5.366E-02  1.019E+05  1.483E-06  6.500E-02  3.332E+02  2.930E+02
  1.861E-02  5.997E-02  1.018E+05  1.334E-06  6.500E-02  3.475E+02  2.930E+02
  1.861E-02  6.628E-02  1.018E+05  8.759E-07  6.500E-02  3.642E+02  2.930E+02
  1.861E-02  7.259E-02  1.018E+05  7.729E-07  6.500E-02  3.816E+02  2.930E+02
  1.861E-02  7.891E-02  1.018E+05  1.165E-06  6.500E-02  3.975E+02  2.930E+02
  1.861E-02  8.522E-02  1.018E+05  5.793E-07  6.500E-02  4.089E+02  2.930E+02
  1.861E-02  9.153E-02  1.018E+05  2.974E-06  6.500E-02  4.130E+02  2.930E+02
  1.861E-02  9.784E-02  1.018E+05  6.382E-06  6.500E-02  4.089E+02  2.930E+02
  1.861E-02  1.042E-01  1.018E+05  3.029E-06  6.501E-02  3.975E+02  2.930E+02
  1.861E-02  1.105E-01  1.018E+05  1.024E-06  6.500E-02  3.816E+02  2.930E+02
  1.861E-02  1.168E-01  1.018E+05  1.216E-06  6.500E-02  3.642E+02  2.930E+02
  1.861E-02  1.231E-01  1.018E+05  7.750E-07  6.500E-02  3.475E+02  2.930E+02
  1.861E-02  1.294E-01  1.018E+05  9.083E-07  6.500E-02  3.332E+02  2.930E+02
  1.861E-02  1.357E-01  1.018E+05  8.992E-07  6.500E-02  3.216E+02  2.930E+02
  1.861E-02  1.420E-01  1.017E+05  4.902E-07  6.500E-02  3.128E+02  2.930E+02
  1.861E-02  1.483E-01  1.017E+05  2.680E-06  6.500E-02  3.064E+02  2.930E+02
  1.861E-02  1.547E-01  1.017E+05  6.373E-06  6.500E-02  3.018E+02  2.930E+02
  1.861E-02  1.610E-01  1.017E+05  2.362E-06  6.500E-02  2.986E+02  2.930E+02
  1.861E-02  1.673E-01  1.017E+05 -6.889E-07  6.500E-02  2.965E+02  2.930E+02
  1.861E-02  1.736E-01  1.017E+05  3.669E-07  6.501E-02  2.952E+02  2.930E+02
  1.861E-02  1.799E-01  1.017E+05  4.296E-07  6.500E-02  2.943E+02  2.930E+02
  1.861E-02  1.862E-01  1.017E+05  5.015E-07  6.500E-02  2.938E+02  2.930E+02
  1.861E-02  1.925E-01  1.017E+05  5.060E-07  6.500E-02  2.934E+02  2.930E+02
  1.861E-02  1.988E-01  1.017E+05  4.928E-07  6.500E-02  2.932E+02  2.930E+02
  1.861E-02  2.052E-01  1.017E+05  4.694E-07  6.500E-02  2.931E+02  2.930E+02
  1.861E-02  2.115E-01  1.017E+05  4.416E-07  6.500E-02  2.931E+02  2.930E+02
  1.861E-02  2.178E-01  1.017E+05  4.119E-07  6.500E-02  2.930E+02  2.930E+02
  1.861E-02  2.241E-01  1.017E+05  3.804E-07  6.500E-02  2.930E+02  2.930E+02
  1.861E-02  2.304E-01  1.016E+05  3.511E-07  6.500E-02  2.930E+02  2.930E+02
  1.861E-02  2.367E-01  1.016E+05  3.093E-07  6.500E-02  2.930E+02  2.930E+02
  1.861E-02  2.430E-01  1.016E+05  3.136E-07  6.500E-02  2.930E+02  2.930E+02
  1.861E-02  2.493E-01  1.016E+05  1.230E-07  6.500E-02  2.930E+02  2.930E+02
  1.861E-02  2.557E-01  1.016E+05  3.104E-07  6.501E-02  2.930E+02  2.930E+02
  1.861E-02  2.620E-01  1.016E+05  4.740E-07  6.500E-02  2.930E+02  2.930E+02
  1.861E-02  2.683E-01  1.016E+05  3.259E-07  6.499E-02  2.930E+02  2.930E+02
  1.861E-02  2.746E-01  1.016E+05  1.130E-07  6.499E-02  2.930E+02  2.930E+02
  1.861E-02  2.809E-01  1.016E+05  2.707E-07  6.500E-02  2.930E+02  2.930E+02
  1.861E-02  2.872E-01  1.016E+05  1.938E-07  6.500E-02  2.930E+02  2.930E+02
  1.861E-02  2.935E-01  1.016E+05  1.770E-07  6.500E-02  2.930E+02  2.930E+02
  1.861E-02  2.998E-01  1.016E+05  1.502E-07  6.500E-02  2.930E+02  2.930E+02
  1.861E-02  3.062E-01  1.016E+05  1.321E-07  6.500E-02  2.930E+02  2.930E+02
  1.861E-02  3.125E-01  1.015E+05  1.170E-07  6.500E-02  2.930E+02  2.930E+02
  1.861E-02  3.188E-01  1.015E+05  1.047E-07  6.500E-02  2.930E+02  2.930E+02
  1.861E-02  3.251E-01  1.015E+05  9.416E-08  6.500E-02  2.930E+02  2.930E+02
  1.861E-02  3.314E-01  1.015E+05  8.506E-08  6.501E-02  2.930E+02  2.930E+02
  1.861E-02  3.377E-01  1.015E+05  7.676E-08  6.500E-02  2.930E+02  2.930E+02
  1.861E-02  3.440E-01  1.015E+05  6.908E-08  6.500E-02  2.930E+02  2.930E+02
  1.861E-02  3.503E-01  1.015E+05  6.197E-08  6.500E-02  2.930E+02  2.930E+02
  1.861E-02  3.567E-01  1.015E+05  5.537E-08  6.500E-02  2.930E+02  2.930E+02
  1.861E-02  3.630E-01  1.015E+05  4.927E-08  6.500E-02  2.930E+02  2.930E+02
  1.861E-02  3.693E-01  1.015E+05  4.365E-08  6.500E-02  2.930E+02  2.930E+02
  1.861E-02  3.756E-01  1.015E+05  3.851E-08  6.500E-02  2.930E+02  2.930E+02
  1.861E-02  3.819E-01  1.015E+05  3.388E-08  6.500E-02  2.930E+02  2.930E+02
  1.861E-02  3.882E-01  1.015E+05  2.976E-08  6.500E-02  2.930E+02  2.930E+02
  1.861E-02  3.945E-01  1.015E+05  2.601E-08  6.500E-02  2.930E+02  2.930E+02
  1.861E-02  4.008E-01  1.014E+05  2.267E-08  6.500E-02  2.930E+02  2.930E+02
  1.861E-02  4.072E-01  1.014E+05  1.974E-08  6.500E-02  2.930E+02  2.930E+02
  1.861E-02  4.135E-01  1.014E+05  1.714E-08  6.500E-02  2.930E+02  2.930E+02
  1.861E-02  4.198E-01  1.014E+05  1.491E-08  6.500E-02  2.930E+02  2.930E+02
  1.861E-02  4.261E-01  1.014E+05  1.302E-08  6.500E-02  2.930E+02  2.930E+02
  1.861E-02  4.324E-01  1.014E+05  1.141E-08  6.500E-02  2.930E+02  2.930E+02
  1.861E-02  4.387E-01  1.014E+05  1.023E-08  6.500E-02  2.930E+02  2.930E+02
  1.861E-02  4.450E-01  1.014E+05  9.512E-09  6.500E-02  2.930E+02  2.930E+02
  1.861E-02  4.513E-01  1.014E+05  9.272E-09  6.500E-02  2.930E+02  2.930E+02
  1.861E-02  4.577E-01  1.014E+05  9.760E-09  6.500E-02  2.930E+02  2.930E+02
  1.861E-02  4.640E-01  1.014E+05  8.847E-09  6.500E-02  2.930E+02  2.930E+02
  1.861E-02  4.703E-01  1.014E+05  1.707E-08  6.500E-02  2.930E+02  2.930E+02
  1.861E-02  4.766E-01  1.014E+05 -4.387E-08  6.500E-02  2.930E+02  2.930E+02
  1.861E-02  4.829E-01  1.014E+05  2.966E-07  6.500E-02  2.930E+02  2.930E+02
  1.861E-02  4.892E-01  1.013E+05 -2.061E-06  6.500E-02  2.930E+02  2.930E+02
  1.861E-02  4.955E-01  1.013E+05 -6.363E-06  6.500E-02  2.930E+02  2.930E+02
  1.861E-02  5.018E-01  1.013E+05 -4.754E-07  6.499E-02  2.930E+02  2.930E+02
  1.861E-02  5.050E-01  1.013E+05  0.000E+00  6.499E-02  2.930E+02  2.930E+02
  3.102E-02  0.000E+00  1.019E+05  0.000E+00  6.500E-02  2.930E+02  2.930E+02
  3.102E-02  3.156E-03  1.019E+05  7.463E-06  6.498E-02  2.935E+02  2.930E+02
  3.102E-02  9.469E-03  1.019E+05  4.224E-06  6.499E-02  2.947E+02  2.930E+02
  3.102E-02  1.578E-02  1.019E+05  6.199E-06  6.500E-02  2.963E+02  2.930E+02
  3.102E-02  2.209E-02  1.019E+05  3.652E-06  6.501E-02  2.985E+02  2.930E+02
  3.102E-02  2.841E-02  1.019E+05  1.521E-06  6.500E-02  3.017E+02  2.930E+02
  3.102E-02  3.472E-02  1.019E+05  2.087E-06  6.500E-02  3.063E+02  2.930E+02
  3.102E-02  4.103E-02  1.019E+05  1.625E-06  6.500E-02  3.128E+02  2.930E+02
  3.102E-02  4.734E-02  1.019E+05  1.588E-06  6.500E-02  3.216E+02  2.930E+02
  3.102E-02  5.366E-02  1.019E+05  1.172E-06  6.500E-02  3.332E+02  2.930E+02
  3.102E-02  5.997E-02  1.018E+05  1.259E-06  6.500E-02  3.475E+02  2.930E+02
  3.102E-02  6.628E-02  1.018E+05  1.397E-06  6.500E-02  3.642E+02  2.930E+02
  3.102E-02  7.259E-02  1.018E+05  8.897E-07  6.500E-02  3.816E+02  2.930E+02
  3.102E-02  7.891E-02  1.018E+05  3.006E-06  6.500E-02  3.975E+02  2.930E+02
  3.102E-02  8.522E-02  1.018E+05  5.641E-06  6.500E-02  4.089E+02  2.930E+02
  3.102E-02  9.153E-02  1.018E+05  4.493E-06  6.501E-02  4.130E+02  2.930E+02
  3.102E-02  9.784E-02  1.018E+05  5.861E-06  6.500E-02  4.089E+02  2.930E+02
  3.102E-02  1.042E-01  1.018E+05  3.035E-06  6.500E-02  3.975E+02  2.930E+02
  3.102E-02  1.105E-01  1.018E+05  9.001E-07  6.500E-02  3.816E+02  2.930E+02
  3.102E-02  1.168E-01  1.018E+05  1.340E-06  6.500E-02  3.642E+02  2.930E+02
  3.102E-02  1.231E-01  1.018E+05  1.103E-06  6.500E-02  3.475E+02  2.930E+02
  3.102E-02  1.294E-01  1.018E+05  1.084E-06  6.500E-02  3.332E+02  2.930E+02
  3.102E-02  1.357E-01  1.018E+05  1.135E-06  6.500E-02  3.216E+02  2.930E+02
  3.102E-02  1.420E-01  1.017E+05  4.342E-07  6.500E-02  3.128E+02  2.930E+02
  3.102E-02  1.483E-01  1.017E+05  2.611E-06  6.501E-02  3.064E+02  2.930E+02
  3.102E-02  1.547E-01  1.017E+05  5.219E-06  6.500E-02  3.018E+02  2.930E+02
  3.102E-02  1.610E-01  1.017E+05  3.524E-06  6.500E-02  2.986E+02  2.930E+02
  3.102E-02  1.673E-01  1.017E+05  4.320E-06  6.500E-02  2.965E+02  2.930E+02
  3.102E-02  1.736E-01  1.017E+05  1.802E-06  6.500E-02  2.952E+02  2.930E+02
  3.102E-02  1.799E-01  1.017E+05  1.447E-07  6.500E-02  2.943E+02  2.930E+02
  3.102E-02  1.862E-01  1.017E+05  6.758E-07  6.500E-02  2.938E+02  2.930E+02
  3.102E-02  1.925E-01  1.017E+05  6.976E-07  6.500E-02  2.934E+02  2.930E+02
  3.102E-02  1.988E-01  1.017E+05  7.151E-07  6.500E-02  2.932E+02  2.930E+02
  3.102E-02  2.052E-01  1.017E+05  6.945E-07  6.500E-02  2.931E+02  2.930E+02
  3.102E-02  2.115E-01  1.017E+05  6.606E-07  6.500E-02  2.931E+02  2.930E+02
  3.102E-02  2.178E-01  1.017E+05  6.216E-07  6.500E-02  2.930E+02  2.930E+02
  3.102E-02  2.241E-01  1.017E+05  5.789E-07  6.500E-02  2.930E+02  2.930E+02
  3.102E-02  2.304E-01  1.016E+05  5.554E-07  6.500E-02  2.930E+02  2.930E+02
  3.102E-02  2.367E-01  1.016E+05  5.127E-07  6.500E-02  2.930E+02  2.930E+02
  3.102E-02  2.430E-01  1.016E+05  7.311E-07  6.500E-02  2.930E+02  2.930E+02
  3.102E-02  2.493E-01  1.016E+05  7.176E-07  6.500E-02  2.930E+02  2.930E+02
  3.102E-02  2.557E-01  1.016E+05  4.783E-07  6.501E-02  2.930E+02  2.930E+02
  3.102E-02  2.620E-01  1.016E+05  1.832E-08  6.500E-02  2.930E+02  2.930E+02
  3.102E-02  2.683E-01  1.016E+05  6.056E-07  6.499E-02  2.930E+02  2.930E+02
  3.102E-02  2.746E-01  1.016E+05  7.936E-07  6.499E-02  2.930E+02  2.930E+02
  3.102E-02  2.809E-01  1.016E+05  7.762E-07  6.500E-02  2.930E+02  2.930E+02
  3.102E-02  2.872E-01  1.016E+05  3.360E-07  6.500E-02  2.930E+02  2.930E+02
  3.102E-02  2.935E-01  1.016E+05  2.877E-07  6.500E-02  2.930E+02  2.930E+02
  3.102E-02  2.998E-01  1.016E+05  2.200E-07  6.500E-02  2.930E+02  2.930E+02
  3.102E-02  3.062E-01  1.016E+05  1.916E-07  6.500E-02  2.930E+02  2.930E+02
  3.102E-02  3.125E-01  1.015E+05  1.696E-07  6.500E-02  2.930E+02  2.930E+02
  3.102E-02  3.188E-01  1.015E+05  1.531E-07  6.500E-02  2.930E+02  2.930E+02
  3.102E-02  3.251E-01  1.015E+05  1.384E-07  6.500E-02  2.930E+02  2.930E+02
  3.102E-02  3.314E-01  1.015E+05  1.262E-07  6.501E-02  2.930E+02  2.930E+02
  3.102E-02  3.377E-01  1.015E+05  1.144E-07  6.500E-02  2.930E+02  2.930E+02
  3.102E-02  3.440E-01  1.015E+05  1.032E-07  6.500E-02  2.930E+02  2.930E+02
  3.102E-02  3.503E-01  1.015E+05  9.251E-08  6.500E-02  2.930E+02  2.930E+02
  3.102E-02  3.567E-01  1.015E+05  8.249E-08  6.500E-02  2.930E+02  2.930E+02
  3.102E-02  3.630E-01  1.015E+05  7.315E-08  6.500E-02  2.930E+02  2.930E+02
  3.102E-02  3.693E-01  1.015E+05  6.457E-08  6.500E-02  2.930E+02  2.930E+02
  3.102E-02  3.756E-01  1.015E+05  5.678E-08  6.500E-02  2.930E+02  2.930E+02
  3.102E-02  3.819E-01  1.015E+05  4.973E-08  6.500E-02  2.930E+02  2.930E+02
  3.102E-02  3.882E-01  1.015E+05  4.341E-08  6.500E-02  2.930E+02  2.930E+02
  3.102E-02  3.945E-01  1.015E+05  3.778E-08  6.500E-02  2.930E+02  2.930E+02
  3.102E-02  4.008E-01  1.014E+05  3.275E-08  6.500E-02  2.930E+02  2.930E+02
  3.102E-02  4.072E-01  1.014E+05  2.830E-08  6.500E-02  2.930E+02  2.930E+02
  3.102E-02  4.135E-01  1.014E+05  2.432E-08  6.500E-02  2.930E+02  2.930E+02
  3.102E-02  4.198E-01  1.014E+05  2.073E-08  6.500E-02  2.930E+02  2.930E+02
  3.102E-02  4.261E-01  1.014E+05  1.748E-08  6.500E-02  2.930E+02  2.930E+02
  3.102E-02  4.324E-01  1.014E+05  1.439E-08  6.500E-02  2.930E+02  2.930E+02
  3.102E-02  4.387E-01  1.014E+05  1.128E-08  6.500E-02  2.930E+02  2.930E+02
  3.102E-02  4.450E-01  1.014E+05  7.726E-09  6.500E-02  2.930E+02  2.930E+02
  3.102E-02  4.513E-01  1.014E+05  3.068E-09  6.500E-02  2.930E+02  2.930E+02
  3.102E-02  4.577E-01  1.014E+05 -3.979E-09  6.500E-02  2.930E+02  2.930E+02
  3.102E-02  4.640E-01  1.014E+05 -1.628E-08  6.500E-02  2.930E+02  2.930E+02
  3.102E-02  4.703E-01  1.014E+05 -3.744E-08  6.500E-02  2.930E+02  2.930E+02
  3.102E-02  4.766E-01  1.014E+05 -8.408E-08  6.500E-02  2.930E+02  2.930E+02
  3.102E-02  4.829E-01  1.014E+05 -1.407E-07  6.500E-02  2.930E+02  2.930E+02
  3.102E-02  4.892E-01  1.013E+05 -3.883E-07  6.500E-02  2.930E+02  2.930E+02
  3.102E-02  4.955E-01  1.013E+05 -4.306E-07  6.500E-02  2.930E+02  2.930E+02
  3.102E-02  5.018E-01  1.013E+05 -2.337E-07  6.500E-02  2.930E+02  2.930E+02
  3.102E-02  5.050E-01  1.013E+05  0.000E+00  6.500E-02  2.930E+02  2.930E+02
  4.342E-02  0.000E+00  1.019E+05  0.000E+00  6.500E-02  2.930E+02  2.930E+02
  4.342E-02  3.156E-03  1.019E+05  1.689E-06  6.498E-02  2.935E+02  2.930E+02
  4.342E-02  9.469E-03  1.019E+05  3.396E-06  6.500E-02  2.947E+02  2.930E+02
  4.342E-02  1.578E-02  1.019E+05  6.294E-06  6.500E-02  2.963E+02  2.930E+02
  4.342E-02  2.209E-02  1.019E+05  3.017E-06  6.500E-02  2.985E+02  2.930E+02
  4.342E-02  2.841E-02  1.019E+05  5.044E-07  6.500E-02  3.017E+02  2.930E+02
  4.342E-02  3.472E-02  1.019E+05  1.319E-06  6.500E-02  3.063E+02  2.930E+02
  4.342E-02  4.103E-02  1.019E+05  1.268E-06  6.500E-02  3.128E+02  2.930E+02
  4.342E-02  4.734E-02  1.019E+05  1.202E-06  6.500E-02  3.216E+02  2.930E+02
  4.342E-02  5.366E-02  1.019E+05  1.217E-06  6.500E-02  3.332E+02  2.930E+02
  4.342E-02  5.997E-02  1.018E+05  3.204E-07  6.500E-02  3.475E+02  2.930E+02
  4.342E-02  6.628E-02  1.018E+05  2.800E-06  6.500E-02  3.642E+02  2.930E+02
  4.342E-02  7.259E-02  1.018E+05  5.594E-06  6.500E-02  3.816E+02  2.930E+02
  4.342E-02  7.891E-02  1.018E+05  4.663E-06  6.501E-02  3.975E+02  2.930E+02
  4.342E-02  8.522E-02  1.018E+05  6.059E-06  6.500E-02  4.089E+02  2.930E+02
  4.342E-02  9.153E-02  1.018E+05  3.444E-06  6.500E-02  4.130E+02  2.930E+02
  4.342E-02  9.784E-02  1.018E+05  1.163E-06  6.500E-02  4.089E+02  2.930E+02
  4.342E-02  1.042E-01  1.018E+05  1.657E-06  6.500E-02  3.975E+02  2.930E+02
  4.342E-02  1.105E-01  1.018E+05  1.087E-06  6.500E-02  3.816E+02  2.930E+02
  4.342E-02  1.168E-01  1.018E+05  1.273E-06  6.500E-02  3.642E+02  2.930E+02
  4.342E-02  1.231E-01  1.018E+05  1.267E-06  6.500E-02  3.475E+02  2.930E+02
  4.342E-02  1.294E-01  1.018E+05  1.137E-06  6.500E-02  3.332E+02  2.930E+02
  4.342E-02  1.357E-01  1.018E+05  1.863E-06  6.500E-02  3.216E+02  2.930E+02
  4.342E-02  1.420E-01  1.017E+05  1.972E-06  6.500E-02  3.128E+02  2.930E+02
  4.342E-02  1.483E-01  1.017E+05  2.307E-06  6.501E-02  3.064E+02  2.930E+02
  4.342E-02  1.547E-01  1.017E+05  1.844E-06  6.500E-02  3.018E+02  2.930E+02
  4.342E-02  1.610E-01  1.017E+05  1.939E-06  6.500E-02  2.986E+02  2.930E+02
  4.342E-02  1.673E-01  1.017E+05  1.663E-06  6.500E-02  2.965E+02  2.930E+02
  4.342E-02  1.736E-01  1.017E+05  1.427E-06  6.500E-02  2.952E+02  2.930E+02
  4.342E-02  1.799E-01  1.017E+05  1.201E-06  6.500E-02  2.943E+02  2.930E+02
  4.342E-02  1.862E-01  1.017E+05  1.137E-06  6.500E-02  2.938E+02  2.930E+02
  4.342E-02  1.925E-01  1.017E+05  1.077E-06  6.500E-02  2.934E+02  2.930E+02
  4.342E-02  1.988E-01  1.017E+05  1.023E-06  6.500E-02  2.932E+02  2.930E+02
  4.342E-02  2.052E-01  1.017E+05  9.647E-07  6.500E-02  2.931E+02  2.930E+02
  4.342E-02  2.115E-01  1.017E+05  8.970E-07  6.500E-02  2.931E+02  2.930E+02
  4.342E-02  2.178E-01  1.017E+05  8.285E-07  6.500E-02  2.930E+02  2.930E+02
  4.342E-02  2.241E-01  1.017E+05  7.135E-07  6.500E-02  2.930E+02  2.930E+02
  4.342E-02  2.304E-01  1.016E+05  7.026E-07  6.500E-02  2.930E+02  2.930E+02
  4.342E-02  2.367E-01  1.016E+05  3.510E-08  6.500E-02  2.930E+02  2.930E+02
  4.342E-02  2.430E-01  1.016E+05  2.347E-06  6.500E-02  2.930E+02  2.930E+02
  4.342E-02  2.493E-01  1.016E+05  6.246E-06  6.500E-02  2.930E+02  2.930E+02
  4.342E-02  2.557E-01  1.016E+05  9.723E-07  6.501E-02  2.930E+02  2.930E+02
  4.342E-02  2.620E-01  1.016E+05 -4.865E-06  6.500E-02  2.930E+02  2.930E+02
  4.342E-02  2.683E-01  1.016E+05  1.019E-06  6.499E-02  2.930E+02  2.930E+02
  4.342E-02  2.746E-01  1.016E+05  6.260E-06  6.499E-02  2.930E+02  2.930E+02
  4.342E-02  2.809E-01  1.016E+05  2.302E-06  6.500E-02  2.930E+02  2.930E+02
  4.342E-02  2.872E-01  1.016E+05 -2.760E-07  6.500E-02  2.930E+02  2.930E+02
  4.342E-02  2.935E-01  1.016E+05  2.946E-07  6.500E-02  2.930E+02  2.930E+02
  4.342E-02  2.998E-01  1.016E+05  2.106E-07  6.500E-02  2.930E+02  2.930E+02
  4.342E-02  3.062E-01  1.016E+05  2.273E-07  6.500E-02  2.930E+02  2.930E+02
  4.342E-02  3.125E-01  1.015E+05  2.140E-07  6.500E-02  2.930E+02  2.930E+02
  4.342E-02  3.188E-01  1.015E+05  2.025E-07  6.500E-02  2.930E+02  2.930E+02
  4.342E-02  3.251E-01  1.015E+05  1.862E-07  6.500E-02  2.930E+02  2.930E+02
  4.342E-02  3.314E-01  1.015E+05  1.725E-07  6.501E-02  2.930E+02  2.930E+02
  4.342E-02  3.377E-01  1.015E+05  1.559E-07  6.500E-02  2.930E+02  2.930E+02