VARIABLES="XP","YP","P","U","V","TS","TF"
ZONE T="Zone 001"I=    82 J=    12 F=POINT
  0.000E+00  0.000E+00  1.013E+05 -2.654E-07 -2.815E-03  2.930E+02  3.154E+02
  0.000E+00  3.156E-03  1.013E+05 -2.654E-07 -2.815E-03  2.930E+02  3.154E+02
  0.000E+00  9.469E-03  1.013E+05 -2.671E-07 -2.156E-03  2.930E+02  3.654E+02
  0.000E+00  1.578E-02  1.013E+05 -2.603E-07 -3.011E-03  2.930E+02  4.300E+02
  0.000E+00  2.209E-02  1.013E+05 -2.399E-07 -3.195E-03  2.930E+02  5.169E+02
  0.000E+00  2.841E-02  1.013E+05 -1.739E-07 -3.069E-03  2.931E+02  6.320E+02
  0.000E+00  3.472E-02  1.013E+05 -7.052E-08 -2.799E-03  2.933E+02  7.785E+02
  0.000E+00  4.103E-02  1.013E+05  3.477E-07 -2.456E-03  2.937E+02  9.574E+02
  0.000E+00  4.734E-02  1.013E+05  1.285E-06 -2.074E-03  2.946E+02  1.169E+03
  0.000E+00  5.366E-02  1.013E+05  5.016E-07 -1.670E-03  2.966E+02  1.412E+03
  0.000E+00  5.997E-02  1.013E+05  1.639E-07 -1.245E-03  3.006E+02  1.687E+03
  0.000E+00  6.628E-02  1.013E+05  1.367E-07 -7.796E-04  3.080E+02  1.992E+03
  0.000E+00  7.259E-02  1.013E+05  1.098E-07 -2.526E-04  3.209E+02  2.324E+03
  0.000E+00  7.891E-02  1.013E+05  1.110E-07  3.630E-04  3.419E+02  2.677E+03
  0.000E+00  8.522E-02  1.013E+05  1.043E-07  1.026E-03  3.732E+02  3.037E+03
  0.000E+00  9.153E-02  1.013E+05  1.014E-07  2.694E-03  4.169E+02  3.376E+03
  0.000E+00  9.784E-02  1.013E+05  7.450E-08  6.511E-04  3.732E+02  2.813E+03
  0.000E+00  1.042E-01  1.013E+05  4.011E-08  1.501E-04  3.419E+02  2.427E+03
  0.000E+00  1.105E-01  1.013E+05  1.209E-08 -2.060E-04  3.209E+02  2.168E+03
  0.000E+00  1.168E-01  1.013E+05 -7.212E-09 -3.864E-04  3.080E+02  1.995E+03
  0.000E+00  1.231E-01  1.013E+05 -2.752E-08 -4.740E-04  3.006E+02  1.878E+03
  0.000E+00  1.294E-01  1.013E+05 -3.840E-08 -5.066E-04  2.966E+02  1.798E+03
  0.000E+00  1.357E-01  1.013E+05 -4.378E-08 -5.230E-04  2.946E+02  1.743E+03
  0.000E+00  1.420E-01  1.013E+05 -4.258E-08 -5.387E-04  2.937E+02  1.706E+03
  0.000E+00  1.483E-01  1.013E+05 -3.897E-08 -5.353E-04  2.933E+02  1.681E+03
  0.000E+00  1.547E-01  1.013E+05 -3.399E-08 -5.189E-04  2.931E+02  1.664E+03
  0.000E+00  1.610E-01  1.013E+05 -2.838E-08 -5.089E-04  2.930E+02  1.652E+03
  0.000E+00  1.673E-01  1.013E+05 -2.310E-08 -4.968E-04  2.930E+02  1.644E+03
  0.000E+00  1.736E-01  1.013E+05 -1.850E-08 -4.764E-04  2.930E+02  1.639E+03
  0.000E+00  1.799E-01  1.013E+05 -1.473E-08 -4.668E-04  2.930E+02  1.636E+03
  0.000E+00  1.862E-01  1.013E+05 -1.178E-08 -4.703E-04  2.930E+02  1.634E+03
  0.000E+00  1.925E-01  1.013E+05 -9.600E-09 -4.572E-04  2.930E+02  1.633E+03
  0.000E+00  1.988E-01  1.013E+05 -8.048E-09 -4.260E-04  2.930E+02  1.633E+03
  0.000E+00  2.052E-01  1.013E+05 -7.047E-09 -4.123E-04  2.930E+02  1.633E+03
  0.000E+00  2.115E-01  1.013E+05 -6.560E-09 -4.133E-04  2.930E+02  1.633E+03
  0.000E+00  2.178E-01  1.013E+05 -6.545E-09 -4.035E-04  2.930E+02  1.633E+03
  0.000E+00  2.241E-01  1.013E+05 -6.954E-09 -3.776E-04  2.930E+02  1.634E+03
  0.000E+00  2.304E-01  1.013E+05 -7.767E-09 -3.508E-04  2.930E+02  1.634E+03
  0.000E+00  2.367E-01  1.013E+05 -9.001E-09 -3.371E-04  2.930E+02  1.635E+03
  0.000E+00  2.430E-01  1.013E+05 -1.068E-08 -3.279E-04  2.930E+02  1.635E+03
  0.000E+00  2.493E-01  1.013E+05 -1.280E-08 -3.174E-04  2.930E+02  1.636E+03
  0.000E+00  2.557E-01  1.013E+05 -1.521E-08 -3.019E-04  2.930E+02  1.636E+03
  0.000E+00  2.620E-01  1.013E+05 -1.746E-08 -2.757E-04  2.930E+02  1.636E+03
  0.000E+00  2.683E-01  1.013E+05 -1.924E-08 -2.511E-04  2.930E+02  1.637E+03
  0.000E+00  2.746E-01  1.013E+05 -2.040E-08 -2.391E-04  2.930E+02  1.637E+03
  0.000E+00  2.809E-01  1.013E+05 -2.081E-08 -2.280E-04  2.930E+02  1.637E+03
  0.000E+00  2.872E-01  1.013E+05 -1.996E-08 -2.005E-04  2.930E+02  1.636E+03
  0.000E+00  2.935E-01  1.013E+05 -1.967E-08 -1.680E-04  2.930E+02  1.636E+03
  0.000E+00  2.998E-01  1.013E+05 -1.814E-08 -1.510E-04  2.930E+02  1.635E+03
  0.000E+00  3.062E-01  1.013E+05 -1.622E-08 -1.281E-04  2.930E+02  1.634E+03
  0.000E+00  3.125E-01  1.013E+05 -1.397E-08 -9.447E-05  2.930E+02  1.633E+03
  0.000E+00  3.188E-01  1.013E+05 -1.173E-08 -7.076E-05  2.930E+02  1.631E+03
  0.000E+00  3.251E-01  1.013E+05 -9.661E-09 -5.038E-05  2.930E+02  1.630E+03
  0.000E+00  3.314E-01  1.013E+05 -7.840E-09 -1.542E-05  2.930E+02  1.627E+03
  0.000E+00  3.377E-01  1.013E+05 -6.277E-09  2.732E-05  2.930E+02  1.625E+03
  0.000E+00  3.440E-01  1.013E+05 -4.972E-09  5.773E-05  2.930E+02  1.621E+03
  0.000E+00  3.503E-01  1.013E+05 -3.915E-09  8.544E-05  2.930E+02  1.618E+03
  0.000E+00  3.567E-01  1.013E+05 -3.065E-09  1.182E-04  2.930E+02  1.614E+03
  0.000E+00  3.630E-01  1.013E+05 -2.387E-09  1.395E-04  2.930E+02  1.609E+03
  0.000E+00  3.693E-01  1.013E+05 -1.860E-09  1.612E-04  2.930E+02  1.604E+03
  0.000E+00  3.756E-01  1.013E+05 -1.440E-09  1.942E-04  2.930E+02  1.598E+03
  0.000E+00  3.819E-01  1.013E+05 -1.102E-09  2.104E-04  2.930E+02  1.591E+03
  0.000E+00  3.882E-01  1.013E+05 -8.467E-10  2.228E-04  2.930E+02  1.585E+03
  0.000E+00  3.945E-01  1.013E+05 -6.415E-10  2.479E-04  2.930E+02  1.577E+03
  0.000E+00  4.008E-01  1.013E+05 -4.678E-10  2.538E-04  2.930E+02  1.569E+03
  0.000E+00  4.072E-01  1.013E+05 -3.429E-10  2.488E-04  2.930E+02  1.561E+03
  0.000E+00  4.135E-01  1.013E+05 -2.514E-10  2.578E-04  2.930E+02  1.553E+03
  0.000E+00  4.198E-01  1.013E+05 -1.716E-10  2.631E-04  2.930E+02  1.544E+03
  0.000E+00  4.261E-01  1.013E+05 -1.069E-10  2.630E-04  2.930E+02  1.536E+03
  0.000E+00  4.324E-01  1.013E+05 -5.771E-11  2.613E-04  2.930E+02  1.527E+03
  0.000E+00  4.387E-01  1.013E+05 -1.982E-11  2.551E-04  2.930E+02  1.519E+03
  0.000E+00  4.450E-01  1.013E+05  1.233E-11  2.529E-04  2.930E+02  1.511E+03
  0.000E+00  4.513E-01  1.013E+05  3.926E-11  2.467E-04  2.930E+02  1.504E+03
  0.000E+00  4.577E-01  1.013E+05  5.655E-11  2.376E-04  2.930E+02  1.497E+03
  0.000E+00  4.640E-01  1.013E+05  6.893E-11  2.311E-04  2.930E+02  1.490E+03
  0.000E+00  4.703E-01  1.013E+05  8.649E-11  2.279E-04  2.930E+02  1.485E+03
  0.000E+00  4.766E-01  1.013E+05  1.158E-10  2.260E-04  2.930E+02  1.480E+03
  0.000E+00  4.829E-01  1.013E+05  1.569E-10  2.172E-04  2.930E+02  1.476E+03
  0.000E+00  4.892E-01  1.013E+05  2.047E-10  2.090E-04  2.930E+02  1.473E+03
  0.000E+00  4.955E-01  1.013E+05  3.275E-10  2.207E-04  2.930E+02  1.471E+03
  0.000E+00  5.018E-01  1.013E+05  3.824E-10  1.648E-05  2.930E+02  1.470E+03
  0.000E+00  5.050E-01  1.013E+05  3.824E-10  1.648E-05  2.930E+02  1.470E+03
  6.203E-03  0.000E+00  1.013E+05  0.000E+00  0.000E+00  2.930E+02  2.930E+02
  6.203E-03  3.156E-03  1.013E+05 -2.654E-07 -2.815E-03  2.930E+02  3.154E+02
  6.203E-03  9.469E-03  1.013E+05 -2.671E-07 -2.156E-03  2.930E+02  3.654E+02
  6.203E-03  1.578E-02  1.013E+05 -2.603E-07 -3.011E-03  2.930E+02  4.300E+02
  6.203E-03  2.209E-02  1.013E+05 -2.399E-07 -3.195E-03  2.930E+02  5.169E+02
  6.203E-03  2.841E-02  1.013E+05 -1.739E-07 -3.069E-03  2.931E+02  6.320E+02
  6.203E-03  3.472E-02  1.013E+05 -7.052E-08 -2.799E-03  2.933E+02  7.785E+02
  6.203E-03  4.103E-02  1.013E+05  3.477E-07 -2.456E-03  2.937E+02  9.574E+02
  6.203E-03  4.734E-02  1.013E+05  1.285E-06 -2.074E-03  2.946E+02  1.169E+03
  6.203E-03  5.366E-02  1.013E+05  5.016E-07 -1.670E-03  2.966E+02  1.412E+03
  6.203E-03  5.997E-02  1.013E+05  1.639E-07 -1.245E-03  3.006E+02  1.687E+03
  6.203E-03  6.628E-02  1.013E+05  1.367E-07 -7.796E-04  3.080E+02  1.992E+03
  6.203E-03  7.259E-02  1.013E+05  1.098E-07 -2.526E-04  3.209E+02  2.324E+03
  6.203E-03  7.891E-02  1.013E+05  1.110E-07  3.630E-04  3.419E+02  2.677E+03
  6.203E-03  8.522E-02  1.013E+05  1.043E-07  1.026E-03  3.732E+02  3.037E+03
  6.203E-03  9.153E-02  1.013E+05  1.014E-07  2.694E-03  4.169E+02  3.376E+03
  6.203E-03  9.784E-02  1.013E+05  7.450E-08  6.511E-04  3.732E+02  2.813E+03
  6.203E-03  1.042E-01  1.013E+05  4.011E-08  1.501E-04  3.419E+02  2.427E+03
  6.203E-03  1.105E-01  1.013E+05  1.209E-08 -2.060E-04  3.209E+02  2.168E+03
  6.203E-03  1.168E-01  1.013E+05 -7.212E-09 -3.864E-04  3.080E+02  1.995E+03
  6.203E-03  1.231E-01  1.013E+05 -2.752E-08 -4.740E-04  3.006E+02  1.878E+03
  6.203E-03  1.294E-01  1.013E+05 -3.840E-08 -5.066E-04  2.966E+02  1.798E+03
  6.203E-03  1.357E-01  1.013E+05 -4.378E-08 -5.230E-04  2.946E+02  1.743E+03
  6.203E-03  1.420E-01  1.013E+05 -4.258E-08 -5.387E-04  2.937E+02  1.706E+03
  6.203E-03  1.483E-01  1.013E+05 -3.897E-08 -5.353E-04  2.933E+02  1.681E+03
  6.203E-03  1.547E-01  1.013E+05 -3.399E-08 -5.189E-04  2.931E+02  1.664E+03
  6.203E-03  1.610E-01  1.013E+05 -2.838E-08 -5.089E-04  2.930E+02  1.652E+03
  6.203E-03  1.673E-01  1.013E+05 -2.310E-08 -4.968E-04  2.930E+02  1.644E+03
  6.203E-03  1.736E-01  1.013E+05 -1.850E-08 -4.764E-04  2.930E+02  1.639E+03
  6.203E-03  1.799E-01  1.013E+05 -1.473E-08 -4.668E-04  2.930E+02  1.636E+03
  6.203E-03  1.862E-01  1.013E+05 -1.178E-08 -4.703E-04  2.930E+02  1.634E+03
  6.203E-03  1.925E-01  1.013E+05 -9.600E-09 -4.572E-04  2.930E+02  1.633E+03
  6.203E-03  1.988E-01  1.013E+05 -8.048E-09 -4.260E-04  2.930E+02  1.633E+03
  6.203E-03  2.052E-01  1.013E+05 -7.047E-09 -4.123E-04  2.930E+02  1.633E+03
  6.203E-03  2.115E-01  1.013E+05 -6.560E-09 -4.133E-04  2.930E+02  1.633E+03
  6.203E-03  2.178E-01  1.013E+05 -6.545E-09 -4.035E-04  2.930E+02  1.633E+03
  6.203E-03  2.241E-01  1.013E+05 -6.954E-09 -3.776E-04  2.930E+02  1.634E+03
  6.203E-03  2.304E-01  1.013E+05 -7.767E-09 -3.508E-04  2.930E+02  1.634E+03
  6.203E-03  2.367E-01  1.013E+05 -9.001E-09 -3.371E-04  2.930E+02  1.635E+03
  6.203E-03  2.430E-01  1.013E+05 -1.068E-08 -3.279E-04  2.930E+02  1.635E+03
  6.203E-03  2.493E-01  1.013E+05 -1.280E-08 -3.174E-04  2.930E+02  1.636E+03
  6.203E-03  2.557E-01  1.013E+05 -1.521E-08 -3.019E-04  2.930E+02  1.636E+03
  6.203E-03  2.620E-01  1.013E+05 -1.746E-08 -2.757E-04  2.930E+02  1.636E+03
  6.203E-03  2.683E-01  1.013E+05 -1.924E-08 -2.511E-04  2.930E+02  1.637E+03
  6.203E-03  2.746E-01  1.013E+05 -2.040E-08 -2.391E-04  2.930E+02  1.637E+03
  6.203E-03  2.809E-01  1.013E+05 -2.081E-08 -2.280E-04  2.930E+02  1.637E+03
  6.203E-03  2.872E-01  1.013E+05 -1.996E-08 -2.005E-04  2.930E+02  1.636E+03
  6.203E-03  2.935E-01  1.013E+05 -1.967E-08 -1.680E-04  2.930E+02  1.636E+03
  6.203E-03  2.998E-01  1.013E+05 -1.814E-08 -1.510E-04  2.930E+02  1.635E+03
  6.203E-03  3.062E-01  1.013E+05 -1.622E-08 -1.281E-04  2.930E+02  1.634E+03
  6.203E-03  3.125E-01  1.013E+05 -1.397E-08 -9.447E-05  2.930E+02  1.633E+03
  6.203E-03  3.188E-01  1.013E+05 -1.173E-08 -7.076E-05  2.930E+02  1.631E+03
  6.203E-03  3.251E-01  1.013E+05 -9.661E-09 -5.038E-05  2.930E+02  1.630E+03
  6.203E-03  3.314E-01  1.013E+05 -7.840E-09 -1.542E-05  2.930E+02  1.627E+03
  6.203E-03  3.377E-01  1.013E+05 -6.277E-09  2.732E-05  2.930E+02  1.625E+03
  6.203E-03  3.440E-01  1.013E+05 -4.972E-09  5.773E-05  2.930E+02  1.621E+03
  6.203E-03  3.503E-01  1.013E+05 -3.915E-09  8.544E-05  2.930E+02  1.618E+03
  6.203E-03  3.567E-01  1.013E+05 -3.065E-09  1.182E-04  2.930E+02  1.614E+03
  6.203E-03  3.630E-01  1.013E+05 -2.387E-09  1.395E-04  2.930E+02  1.609E+03
  6.203E-03  3.693E-01  1.013E+05 -1.860E-09  1.612E-04  2.930E+02  1.604E+03
  6.203E-03  3.756E-01  1.013E+05 -1.440E-09  1.942E-04  2.930E+02  1.598E+03
  6.203E-03  3.819E-01  1.013E+05 -1.102E-09  2.104E-04  2.930E+02  1.591E+03
  6.203E-03  3.882E-01  1.013E+05 -8.467E-10  2.228E-04  2.930E+02  1.585E+03
  6.203E-03  3.945E-01  1.013E+05 -6.415E-10  2.479E-04  2.930E+02  1.577E+03
  6.203E-03  4.008E-01  1.013E+05 -4.678E-10  2.538E-04  2.930E+02  1.569E+03
  6.203E-03  4.072E-01  1.013E+05 -3.429E-10  2.488E-04  2.930E+02  1.561E+03
  6.203E-03  4.135E-01  1.013E+05 -2.514E-10  2.578E-04  2.930E+02  1.553E+03
  6.203E-03  4.198E-01  1.013E+05 -1.716E-10  2.631E-04  2.930E+02  1.544E+03
  6.203E-03  4.261E-01  1.013E+05 -1.069E-10  2.630E-04  2.930E+02  1.536E+03
  6.203E-03  4.324E-01  1.013E+05 -5.771E-11  2.613E-04  2.930E+02  1.527E+03
  6.203E-03  4.387E-01  1.013E+05 -1.982E-11  2.551E-04  2.930E+02  1.519E+03
  6.203E-03  4.450E-01  1.013E+05  1.233E-11  2.529E-04  2.930E+02  1.511E+03
  6.203E-03  4.513E-01  1.013E+05  3.926E-11  2.467E-04  2.930E+02  1.504E+03
  6.203E-03  4.577E-01  1.013E+05  5.655E-11  2.376E-04  2.930E+02  1.497E+03
  6.203E-03  4.640E-01  1.013E+05  6.893E-11  2.311E-04  2.930E+02  1.490E+03
  6.203E-03  4.703E-01  1.013E+05  8.649E-11  2.279E-04  2.930E+02  1.485E+03
  6.203E-03  4.766E-01  1.013E+05  1.158E-10  2.260E-04  2.930E+02  1.480E+03
  6.203E-03  4.829E-01  1.013E+05  1.569E-10  2.172E-04  2.930E+02  1.476E+03
  6.203E-03  4.892E-01  1.013E+05  2.047E-10  2.090E-04  2.930E+02  1.473E+03
  6.203E-03  4.955E-01  1.013E+05  3.275E-10  2.207E-04  2.930E+02  1.471E+03
  6.203E-03  5.018E-01  1.013E+05  3.824E-10  1.648E-05  2.930E+02  1.470E+03
  6.203E-03  5.050E-01  1.013E+05  0.000E+00  1.648E-05  2.930E+02  1.470E+03
  1.861E-02  0.000E+00  1.013E+05  0.000E+00  0.000E+00  2.930E+02  2.930E+02
  1.861E-02  3.156E-03  1.013E+05 -6.510E-07 -2.815E-03  2.930E+02  3.154E+02
  1.861E-02  9.469E-03  1.013E+05 -6.537E-07 -2.157E-03  2.930E+02  3.654E+02
  1.861E-02  1.578E-02  1.013E+05 -6.447E-07 -3.012E-03  2.930E+02  4.300E+02
  1.861E-02  2.209E-02  1.013E+05 -6.132E-07 -3.195E-03  2.930E+02  5.169E+02
  1.861E-02  2.841E-02  1.013E+05 -5.177E-07 -3.069E-03  2.931E+02  6.320E+02
  1.861E-02  3.472E-02  1.013E+05 -3.821E-07 -2.798E-03  2.933E+02  7.783E+02
  1.861E-02  4.103E-02  1.013E+05  9.269E-08 -2.455E-03  2.937E+02  9.571E+02
  1.861E-02  4.734E-02  1.013E+05  9.117E-07 -2.075E-03  2.946E+02  1.169E+03
  1.861E-02  5.366E-02  1.013E+05  3.810E-07 -1.672E-03  2.966E+02  1.412E+03
  1.861E-02  5.997E-02  1.013E+05  1.156E-07 -1.247E-03  3.006E+02  1.687E+03
  1.861E-02  6.628E-02  1.013E+05  2.037E-07 -7.810E-04  3.080E+02  1.992E+03
  1.861E-02  7.259E-02  1.013E+05  1.949E-07 -2.536E-04  3.209E+02  2.324E+03
  1.861E-02  7.891E-02  1.013E+05  1.598E-07  3.623E-04  3.419E+02  2.678E+03
  1.861E-02  8.522E-02  1.013E+05  1.939E-07  1.025E-03  3.732E+02  3.037E+03
  1.861E-02  9.153E-02  1.013E+05  2.192E-07  2.693E-03  4.169E+02  3.376E+03
  1.861E-02  9.784E-02  1.013E+05  1.642E-07  6.511E-04  3.732E+02  2.813E+03
  1.861E-02  1.042E-01  1.013E+05  8.974E-08  1.501E-04  3.419E+02  2.427E+03
  1.861E-02  1.105E-01  1.013E+05  3.030E-08 -2.061E-04  3.209E+02  2.168E+03
  1.861E-02  1.168E-01  1.013E+05 -1.137E-08 -3.865E-04  3.080E+02  1.995E+03
  1.861E-02  1.231E-01  1.013E+05 -5.136E-08 -4.740E-04  3.006E+02  1.878E+03
  1.861E-02  1.294E-01  1.013E+05 -6.356E-08 -5.066E-04  2.966E+02  1.798E+03
  1.861E-02  1.357E-01  1.013E+05 -8.349E-08 -5.230E-04  2.946E+02  1.743E+03
  1.861E-02  1.420E-01  1.013E+05 -8.108E-08 -5.387E-04  2.937E+02  1.706E+03
  1.861E-02  1.483E-01  1.013E+05 -7.579E-08 -5.353E-04  2.933E+02  1.681E+03
  1.861E-02  1.547E-01  1.013E+05 -6.647E-08 -5.189E-04  2.931E+02  1.664E+03
  1.861E-02  1.610E-01  1.013E+05 -5.627E-08 -5.089E-04  2.930E+02  1.652E+03
  1.861E-02  1.673E-01  1.013E+05 -4.648E-08 -4.968E-04  2.930E+02  1.644E+03
  1.861E-02  1.736E-01  1.013E+05 -3.784E-08 -4.764E-04  2.930E+02  1.639E+03
  1.861E-02  1.799E-01  1.013E+05 -3.064E-08 -4.668E-04  2.930E+02  1.636E+03
  1.861E-02  1.862E-01  1.013E+05 -2.493E-08 -4.703E-04  2.930E+02  1.634E+03
  1.861E-02  1.925E-01  1.013E+05 -2.063E-08 -4.572E-04  2.930E+02  1.633E+03
  1.861E-02  1.988E-01  1.013E+05 -1.756E-08 -4.259E-04  2.930E+02  1.633E+03
  1.861E-02  2.052E-01  1.013E+05 -1.562E-08 -4.123E-04  2.930E+02  1.633E+03
  1.861E-02  2.115E-01  1.013E+05 -1.475E-08 -4.133E-04  2.930E+02  1.633E+03
  1.861E-02  2.178E-01  1.013E+05 -1.488E-08 -4.035E-04  2.930E+02  1.633E+03
  1.861E-02  2.241E-01  1.013E+05 -1.596E-08 -3.776E-04  2.930E+02  1.634E+03
  1.861E-02  2.304E-01  1.013E+05 -1.797E-08 -3.508E-04  2.930E+02  1.634E+03
  1.861E-02  2.367E-01  1.013E+05 -2.093E-08 -3.371E-04  2.930E+02  1.635E+03
  1.861E-02  2.430E-01  1.013E+05 -2.487E-08 -3.279E-04  2.930E+02  1.635E+03
  1.861E-02  2.493E-01  1.013E+05 -2.993E-08 -3.174E-04  2.930E+02  1.636E+03
  1.861E-02  2.557E-01  1.013E+05 -3.631E-08 -3.019E-04  2.930E+02  1.636E+03
  1.861E-02  2.620E-01  1.013E+05 -4.186E-08 -2.757E-04  2.930E+02  1.636E+03
  1.861E-02  2.683E-01  1.013E+05 -4.530E-08 -2.511E-04  2.930E+02  1.637E+03
  1.861E-02  2.746E-01  1.013E+05 -4.646E-08 -2.391E-04  2.930E+02  1.637E+03
  1.861E-02  2.809E-01  1.013E+05 -4.543E-08 -2.280E-04  2.930E+02  1.637E+03
  1.861E-02  2.872E-01  1.013E+05 -3.735E-08 -2.004E-04  2.930E+02  1.636E+03
  1.861E-02  2.935E-01  1.013E+05 -4.290E-08 -1.680E-04  2.930E+02  1.636E+03
  1.861E-02  2.998E-01  1.013E+05 -4.052E-08 -1.509E-04  2.930E+02  1.635E+03
  1.861E-02  3.062E-01  1.013E+05 -3.731E-08 -1.281E-04  2.930E+02  1.634E+03
  1.861E-02  3.125E-01  1.013E+05 -3.240E-08 -9.446E-05  2.930E+02  1.633E+03
  1.861E-02  3.188E-01  1.013E+05 -2.728E-08 -7.075E-05  2.930E+02  1.631E+03
  1.861E-02  3.251E-01  1.013E+05 -2.241E-08 -5.038E-05  2.930E+02  1.630E+03
  1.861E-02  3.314E-01  1.013E+05 -1.810E-08 -1.542E-05  2.930E+02  1.627E+03
  1.861E-02  3.377E-01  1.013E+05 -1.441E-08  2.733E-05  2.930E+02  1.625E+03
  1.861E-02  3.440E-01  1.013E+05 -1.136E-08  5.774E-05  2.930E+02  1.621E+03
  1.861E-02  3.503E-01  1.013E+05 -8.884E-09  8.544E-05  2.930E+02  1.618E+03
  1.861E-02  3.567E-01  1.013E+05 -6.909E-09  1.182E-04  2.930E+02  1.614E+03
  1.861E-02  3.630E-01  1.013E+05 -5.346E-09  1.395E-04  2.930E+02  1.609E+03
  1.861E-02  3.693E-01  1.013E+05 -4.130E-09  1.612E-04  2.930E+02  1.604E+03
  1.861E-02  3.756E-01  1.013E+05 -3.173E-09  1.942E-04  2.930E+02  1.598E+03
  1.861E-02  3.819E-01  1.013E+05 -2.421E-09  2.104E-04  2.930E+02  1.591E+03
  1.861E-02  3.882E-01  1.013E+05 -1.846E-09  2.228E-04  2.930E+02  1.585E+03
  1.861E-02  3.945E-01  1.013E+05 -1.394E-09  2.479E-04  2.930E+02  1.577E+03
  1.861E-02  4.008E-01  1.013E+05 -1.030E-09  2.538E-04  2.930E+02  1.569E+03
  1.861E-02  4.072E-01  1.013E+05 -7.594E-10  2.488E-04  2.930E+02  1.561E+03
  1.861E-02  4.135E-01  1.013E+05 -5.565E-10  2.578E-04  2.930E+02  1.553E+03
  1.861E-02  4.198E-01  1.013E+05 -3.907E-10  2.631E-04  2.930E+02  1.544E+03
  1.861E-02  4.261E-01  1.013E+05 -2.594E-10  2.630E-04  2.930E+02  1.536E+03
  1.861E-02  4.324E-01  1.013E+05 -1.590E-10  2.613E-04  2.930E+02  1.527E+03
  1.861E-02  4.387E-01  1.013E+05 -8.106E-11  2.551E-04  2.930E+02  1.519E+03
  1.861E-02  4.450E-01  1.013E+05 -1.720E-11  2.529E-04  2.930E+02  1.511E+03
  1.861E-02  4.513E-01  1.013E+05  3.485E-11  2.467E-04  2.930E+02  1.504E+03
  1.861E-02  4.577E-01  1.013E+05  7.211E-11  2.376E-04  2.930E+02  1.497E+03
  1.861E-02  4.640E-01  1.013E+05  1.007E-10  2.311E-04  2.930E+02  1.490E+03
  1.861E-02  4.703E-01  1.013E+05  1.329E-10  2.279E-04  2.930E+02  1.485E+03
  1.861E-02  4.766E-01  1.013E+05  1.760E-10  2.260E-04  2.930E+02  1.480E+03
  1.861E-02  4.829E-01  1.013E+05  2.301E-10  2.172E-04  2.930E+02  1.476E+03
  1.861E-02  4.892E-01  1.013E+05  2.883E-10  2.090E-04  2.930E+02  1.473E+03
  1.861E-02  4.955E-01  1.013E+05  4.130E-10  2.207E-04  2.930E+02  1.471E+03
  1.861E-02  5.018E-01  1.013E+05  4.743E-10  1.648E-05  2.930E+02  1.470E+03
  1.861E-02  5.050E-01  1.013E+05  0.000E+00  1.648E-05  2.930E+02  1.470E+03
  3.102E-02  0.000E+00  1.013E+05  0.000E+00  0.000E+00  2.930E+02  2.930E+02
  3.102E-02  3.156E-03  1.013E+05 -7.571E-07 -2.815E-03  2.930E+02  3.153E+02
  3.102E-02  9.469E-03  1.013E+05 -7.638E-07 -2.157E-03  2.930E+02  3.654E+02
  3.102E-02  1.578E-02  1.013E+05 -7.645E-07 -3.012E-03  2.930E+02  4.299E+02
  3.102E-02  2.209E-02  1.013E+05 -7.614E-07 -3.196E-03  2.930E+02  5.168E+02
  3.102E-02  2.841E-02  1.013E+05 -7.198E-07 -3.070E-03  2.931E+02  6.319E+02
  3.102E-02  3.472E-02  1.013E+05 -6.564E-07 -2.800E-03  2.933E+02  7.782E+02
  3.102E-02  4.103E-02  1.013E+05 -5.081E-07 -2.457E-03  2.937E+02  9.569E+02
  3.102E-02  4.734E-02  1.013E+05 -5.537E-07 -2.077E-03  2.946E+02  1.168E+03
  3.102E-02  5.366E-02  1.013E+05 -2.185E-07 -1.674E-03  2.966E+02  1.412E+03
  3.102E-02  5.997E-02  1.013E+05 -9.278E-08 -1.249E-03  3.006E+02  1.687E+03
  3.102E-02  6.628E-02  1.013E+05  6.980E-08 -7.838E-04  3.080E+02  1.992E+03
  3.102E-02  7.259E-02  1.013E+05 -4.342E-08 -2.553E-04  3.209E+02  2.325E+03
  3.102E-02  7.891E-02  1.013E+05 -2.435E-07  3.611E-04  3.419E+02  2.678E+03
  3.102E-02  8.522E-02  1.013E+05  2.162E-08  1.025E-03  3.732E+02  3.037E+03
  3.102E-02  9.153E-02  1.013E+05  2.301E-07  2.693E-03  4.169E+02  3.376E+03
  3.102E-02  9.784E-02  1.013E+05  1.860E-07  6.511E-04  3.732E+02  2.813E+03
  3.102E-02  1.042E-01  1.013E+05  1.115E-07  1.501E-04  3.419E+02  2.427E+03
  3.102E-02  1.105E-01  1.013E+05  4.431E-08 -2.060E-04  3.209E+02  2.168E+03
  3.102E-02  1.168E-01  1.013E+05 -2.866E-09 -3.865E-04  3.080E+02  1.995E+03
  3.102E-02  1.231E-01  1.013E+05 -3.788E-08 -4.740E-04  3.006E+02  1.878E+03
  3.102E-02  1.294E-01  1.013E+05 -4.795E-08 -5.066E-04  2.966E+02  1.798E+03
  3.102E-02  1.357E-01  1.013E+05 -6.744E-08 -5.230E-04  2.946E+02  1.743E+03
  3.102E-02  1.420E-01  1.013E+05 -6.823E-08 -5.387E-04  2.937E+02  1.706E+03
  3.102E-02  1.483E-01  1.013E+05 -6.542E-08 -5.353E-04  2.933E+02  1.681E+03
  3.102E-02  1.547E-01  1.013E+05 -5.834E-08 -5.189E-04  2.931E+02  1.664E+03
  3.102E-02  1.610E-01  1.013E+05 -5.047E-08 -5.089E-04  2.930E+02  1.652E+03
  3.102E-02  1.673E-01  1.013E+05 -4.264E-08 -4.968E-04  2.930E+02  1.644E+03
  3.102E-02  1.736E-01  1.013E+05 -3.554E-08 -4.763E-04  2.930E+02  1.639E+03
  3.102E-02  1.799E-01  1.013E+05 -2.947E-08 -4.668E-04  2.930E+02  1.636E+03
  3.102E-02  1.862E-01  1.013E+05 -2.454E-08 -4.703E-04  2.930E+02  1.634E+03
  3.102E-02  1.925E-01  1.013E+05 -2.074E-08 -4.572E-04  2.930E+02  1.633E+03
  3.102E-02  1.988E-01  1.013E+05 -1.807E-08 -4.259E-04  2.930E+02  1.633E+03
  3.102E-02  2.052E-01  1.013E+05 -1.647E-08 -4.123E-04  2.930E+02  1.633E+03
  3.102E-02  2.115E-01  1.013E+05 -1.593E-08 -4.133E-04  2.930E+02  1.633E+03
  3.102E-02  2.178E-01  1.013E+05 -1.646E-08 -4.035E-04  2.930E+02  1.633E+03
  3.102E-02  2.241E-01  1.013E+05 -1.809E-08 -3.776E-04  2.930E+02  1.634E+03
  3.102E-02  2.304E-01  1.013E+05 -2.090E-08 -3.508E-04  2.930E+02  1.634E+03
  3.102E-02  2.367E-01  1.013E+05 -2.500E-08 -3.371E-04  2.930E+02  1.635E+03
  3.102E-02  2.430E-01  1.013E+05 -3.053E-08 -3.279E-04  2.930E+02  1.635E+03
  3.102E-02  2.493E-01  1.013E+05 -3.783E-08 -3.174E-04  2.930E+02  1.636E+03
  3.102E-02  2.557E-01  1.013E+05 -4.742E-08 -3.019E-04  2.930E+02  1.636E+03
  3.102E-02  2.620E-01  1.013E+05 -5.737E-08 -2.757E-04  2.930E+02  1.636E+03
  3.102E-02  2.683E-01  1.013E+05 -6.645E-08 -2.511E-04  2.930E+02  1.637E+03
  3.102E-02  2.746E-01  1.013E+05 -7.320E-08 -2.391E-04  2.930E+02  1.637E+03
  3.102E-02  2.809E-01  1.013E+05 -7.853E-08 -2.280E-04  2.930E+02  1.637E+03
  3.102E-02  2.872E-01  1.013E+05 -6.378E-08 -2.004E-04  2.930E+02  1.636E+03
  3.102E-02  2.935E-01  1.013E+05 -7.236E-08 -1.680E-04  2.930E+02  1.636E+03
  3.102E-02  2.998E-01  1.013E+05 -6.110E-08 -1.509E-04  2.930E+02  1.635E+03
  3.102E-02  3.062E-01  1.013E+05 -5.255E-08 -1.281E-04  2.930E+02  1.634E+03
  3.102E-02  3.125E-01  1.013E+05 -4.277E-08 -9.445E-05  2.930E+02  1.633E+03
  3.102E-02  3.188E-01  1.013E+05 -3.433E-08 -7.074E-05  2.930E+02  1.631E+03
  3.102E-02  3.251E-01  1.013E+05 -2.713E-08 -5.036E-05  2.930E+02  1.630E+03
  3.102E-02  3.314E-01  1.013E+05 -2.125E-08 -1.541E-05  2.930E+02  1.627E+03
  3.102E-02  3.377E-01  1.013E+05 -1.652E-08  2.733E-05  2.930E+02  1.625E+03
  3.102E-02  3.440E-01  1.013E+05 -1.278E-08  5.774E-05  2.930E+02  1.621E+03
  3.102E-02  3.503E-01  1.013E+05 -9.843E-09  8.545E-05  2.930E+02  1.618E+03
  3.102E-02  3.567E-01  1.013E+05 -7.553E-09  1.182E-04  2.930E+02  1.614E+03
  3.102E-02  3.630E-01  1.013E+05 -5.777E-09  1.395E-04  2.930E+02  1.609E+03
  3.102E-02  3.693E-01  1.013E+05 -4.405E-09  1.612E-04  2.930E+02  1.604E+03
  3.102E-02  3.756E-01  1.013E+05 -3.347E-09  1.942E-04  2.930E+02  1.598E+03
  3.102E-02  3.819E-01  1.013E+05 -2.535E-09  2.104E-04  2.930E+02  1.591E+03
  3.102E-02  3.882E-01  1.013E+05 -1.912E-09  2.228E-04  2.930E+02  1.585E+03
  3.102E-02  3.945E-01  1.013E+05 -1.434E-09  2.479E-04  2.930E+02  1.577E+03
  3.102E-02  4.008E-01  1.013E+05 -1.069E-09  2.538E-04  2.930E+02  1.569E+03
  3.102E-02  4.072E-01  1.013E+05 -7.901E-10  2.488E-04  2.930E+02  1.561E+03
  3.102E-02  4.135E-01  1.013E+05 -5.781E-10  2.578E-04  2.930E+02  1.553E+03
  3.102E-02  4.198E-01  1.013E+05 -4.158E-10  2.631E-04  2.930E+02  1.544E+03
  3.102E-02  4.261E-01  1.013E+05 -2.915E-10  2.630E-04  2.930E+02  1.536E+03
  3.102E-02  4.324E-01  1.013E+05 -1.965E-10  2.613E-04  2.930E+02  1.527E+03
  3.102E-02  4.387E-01  1.013E+05 -1.232E-10  2.551E-04  2.930E+02  1.519E+03
  3.102E-02  4.450E-01  1.013E+05 -6.569E-11  2.529E-04  2.930E+02  1.511E+03
  3.102E-02  4.513E-01  1.013E+05 -2.019E-11  2.467E-04  2.930E+02  1.504E+03
  3.102E-02  4.577E-01  1.013E+05  1.603E-11  2.376E-04  2.930E+02  1.497E+03
  3.102E-02  4.640E-01  1.013E+05  4.588E-11  2.311E-04  2.930E+02  1.490E+03
  3.102E-02  4.703E-01  1.013E+05  7.219E-11  2.279E-04  2.930E+02  1.485E+03
  3.102E-02  4.766E-01  1.013E+05  9.579E-11  2.260E-04  2.930E+02  1.480E+03
  3.102E-02  4.829E-01  1.013E+05  1.161E-10  2.172E-04  2.930E+02  1.476E+03
  3.102E-02  4.892E-01  1.013E+05  1.305E-10  2.090E-04  2.930E+02  1.473E+03
  3.102E-02  4.955E-01  1.013E+05  1.300E-10  2.207E-04  2.930E+02  1.471E+03
  3.102E-02  5.018E-01  1.013E+05  1.375E-10  1.648E-05  2.930E+02  1.470E+03
  3.102E-02  5.050E-01  1.013E+05  0.000E+00  1.648E-05  2.930E+02  1.470E+03
  4.342E-02  0.000E+00  1.013E+05  0.000E+00  0.000E+00  2.930E+02  2.930E+02
  4.342E-02  3.156E-03  1.013E+05 -5.659E-07 -2.815E-03  2.930E+02  3.153E+02
  4.342E-02  9.469E-03  1.013E+05 -5.672E-07 -2.157E-03  2.930E+02  3.654E+02
  4.342E-02  1.578E-02  1.013E+05 -5.507E-07 -3.012E-03  2.930E+02  4.299E+02
  4.342E-02  2.209E-02  1.013E+05 -5.834E-07 -3.196E-03  2.930E+02  5.168E+02
  4.342E-02  2.841E-02  1.013E+05 -3.841E-07 -3.070E-03  2.931E+02  6.318E+02
  4.342E-02  3.472E-02  1.013E+05 -4.972E-07 -2.801E-03  2.933E+02  7.781E+02
  4.342E-02  4.103E-02  1.013E+05 -3.312E-07 -2.459E-03  2.937E+02  9.568E+02
  4.342E-02  4.734E-02  1.013E+05 -2.276E-07 -2.078E-03  2.946E+02  1.168E+03
  4.342E-02  5.366E-02  1.013E+05 -1.276E-07 -1.676E-03  2.966E+02  1.412E+03
  4.342E-02  5.997E-02  1.013E+05 -6.505E-08 -1.251E-03  3.006E+02  1.687E+03
  4.342E-02  6.628E-02  1.013E+05 -1.022E-08 -7.857E-04  3.080E+02  1.992E+03
  4.342E-02  7.259E-02  1.013E+05 -1.508E-07 -2.573E-04  3.209E+02  2.325E+03
  4.342E-02  7.891E-02  1.013E+05 -3.269E-07  3.601E-04  3.419E+02  2.677E+03
  4.342E-02  8.522E-02  1.013E+05 -4.848E-08  1.025E-03  3.732E+02  3.037E+03
  4.342E-02  9.153E-02  1.013E+05  1.673E-07  2.693E-03  4.169E+02  3.375E+03
  4.342E-02  9.784E-02  1.013E+05  1.426E-07  6.512E-04  3.732E+02  2.813E+03
  4.342E-02  1.042E-01  1.013E+05  8.375E-08  1.502E-04  3.419E+02  2.427E+03
  4.342E-02  1.105E-01  1.013E+05  2.883E-08 -2.060E-04  3.209E+02  2.168E+03
  4.342E-02  1.168E-01  1.013E+05 -8.455E-09 -3.865E-04  3.080E+02  1.995E+03
  4.342E-02  1.231E-01  1.013E+05 -2.862E-08 -4.740E-04  3.006E+02  1.878E+03
  4.342E-02  1.294E-01  1.013E+05 -5.192E-08 -5.066E-04  2.966E+02  1.798E+03
  4.342E-02  1.357E-01  1.013E+05 -4.550E-08 -5.229E-04  2.946E+02  1.743E+03
  4.342E-02  1.420E-01  1.013E+05 -4.847E-08 -5.387E-04  2.937E+02  1.706E+03
  4.342E-02  1.483E-01  1.013E+05 -4.463E-08 -5.353E-04  2.933E+02  1.681E+03
  4.342E-02  1.547E-01  1.013E+05 -4.006E-08 -5.189E-04  2.931E+02  1.664E+03
  4.342E-02  1.610E-01  1.013E+05 -3.482E-08 -5.089E-04  2.930E+02  1.652E+03
  4.342E-02  1.673E-01  1.013E+05 -2.972E-08 -4.968E-04  2.930E+02  1.644E+03
  4.342E-02  1.736E-01  1.013E+05 -2.507E-08 -4.763E-04  2.930E+02  1.639E+03
  4.342E-02  1.799E-01  1.013E+05 -2.107E-08 -4.668E-04  2.930E+02  1.636E+03
  4.342E-02  1.862E-01  1.013E+05 -1.778E-08 -4.703E-04  2.930E+02  1.634E+03
  4.342E-02  1.925E-01  1.013E+05 -1.524E-08 -4.572E-04  2.930E+02  1.633E+03
  4.342E-02  1.988E-01  1.013E+05 -1.347E-08 -4.259E-04  2.930E+02  1.633E+03
  4.342E-02  2.052E-01  1.013E+05 -1.246E-08 -4.123E-04  2.930E+02  1.633E+03
  4.342E-02  2.115E-01  1.013E+05 -1.221E-08 -4.133E-04  2.930E+02  1.633E+03
  4.342E-02  2.178E-01  1.013E+05 -1.276E-08 -4.035E-04  2.930E+02  1.633E+03
  4.342E-02  2.241E-01  1.013E+05 -1.415E-08 -3.776E-04  2.930E+02  1.634E+03
  4.342E-02  2.304E-01  1.013E+05 -1.640E-08 -3.508E-04  2.930E+02  1.634E+03
  4.342E-02  2.367E-01  1.013E+05 -1.957E-08 -3.371E-04  2.930E+02  1.635E+03
  4.342E-02  2.430E-01  1.013E+05 -2.363E-08 -3.279E-04  2.930E+02  1.635E+03
  4.342E-02  2.493E-01  1.013E+05 -2.843E-08 -3.174E-04  2.930E+02  1.636E+03
  4.342E-02  2.557E-01  1.013E+05 -3.350E-08 -3.019E-04  2.930E+02  1.636E+03
  4.342E-02  2.620E-01  1.013E+05 -3.700E-08 -2.757E-04  2.930E+02  1.636E+03
  4.342E-02  2.683E-01  1.013E+05 -3.710E-08 -2.511E-04  2.930E+02  1.637E+03
  4.342E-02  2.746E-01  1.013E+05 -2.009E-08 -2.391E-04  2.930E+02  1.637E+03
  4.342E-02  2.809E-01  1.013E+05 -1.283E-08 -2.279E-04  2.930E+02  1.637E+03
  4.342E-02  2.872E-01  1.013E+05  2.011E-07 -2.004E-04  2.930E+02  1.636E+03
  4.342E-02  2.935E-01  1.013E+05 -1.266E-08 -1.680E-04  2.930E+02  1.636E+03
  4.342E-02  2.998E-01  1.013E+05 -5.860E-09 -1.509E-04  2.930E+02  1.635E+03
  4.342E-02  3.062E-01  1.013E+05 -2.358E-08 -1.281E-04  2.930E+02  1.634E+03
  4.342E-02  3.125E-01  1.013E+05 -2.316E-08 -9.442E-05  2.930E+02  1.633E+03
  4.342E-02  3.188E-01  1.013E+05 -2.141E-08 -7.072E-05  2.930E+02  1.631E+03
  4.342E-02  3.251E-01  1.013E+05 -1.817E-08 -5.035E-05  2.930E+02  1.630E+03
  4.342E-02  3.314E-01  1.013E+05 -1.492E-08 -1.540E-05  2.930E+02  1.627E+03
  4.342E-02  3.377E-01  1.013E+05 -1.196E-08  2.734E-05  2.930E+02  1.625E+03