VARIABLES="XP","YP","P","U","V","TS","TF"
ZONE T="Zone 001"I=    82 J=    12 F=POINT
  0.000E+00  0.000E+00  1.019E+05  5.194E-07  6.498E-02  2.935E+02  2.930E+02
  0.000E+00  3.156E-03  1.019E+05  5.194E-07  6.498E-02  2.935E+02  2.930E+02
  0.000E+00  9.469E-03  1.019E+05  7.103E-07  6.500E-02  2.945E+02  2.930E+02
  0.000E+00  1.578E-02  1.019E+05  6.773E-07  6.500E-02  2.959E+02  2.930E+02
  0.000E+00  2.209E-02  1.019E+05  8.014E-07  6.500E-02  2.979E+02  2.930E+02
  0.000E+00  2.841E-02  1.019E+05  9.425E-07  6.500E-02  3.008E+02  2.930E+02
  0.000E+00  3.472E-02  1.019E+05  7.199E-07  6.500E-02  3.052E+02  2.930E+02
  0.000E+00  4.103E-02  1.019E+05  4.845E-07  6.500E-02  3.113E+02  2.930E+02
  0.000E+00  4.734E-02  1.019E+05  4.427E-07  6.500E-02  3.199E+02  2.930E+02
  0.000E+00  5.366E-02  1.019E+05  2.080E-07  6.500E-02  3.314E+02  2.930E+02
  0.000E+00  5.997E-02  1.018E+05  3.693E-07  6.500E-02  3.460E+02  2.930E+02
  0.000E+00  6.628E-02  1.018E+05  3.517E-07  6.500E-02  3.635E+02  2.930E+02
  0.000E+00  7.259E-02  1.018E+05  3.787E-07  6.500E-02  3.825E+02  2.930E+02
  0.000E+00  7.891E-02  1.018E+05  4.137E-07  6.500E-02  4.004E+02  2.930E+02
  0.000E+00  8.522E-02  1.018E+05  4.154E-07  6.500E-02  4.136E+02  2.930E+02
  0.000E+00  9.153E-02  1.018E+05  4.693E-07  6.500E-02  4.185E+02  2.930E+02
  0.000E+00  9.784E-02  1.018E+05  4.014E-07  6.500E-02  4.136E+02  2.930E+02
  0.000E+00  1.042E-01  1.018E+05  4.047E-07  6.500E-02  4.004E+02  2.930E+02
  0.000E+00  1.105E-01  1.018E+05  2.963E-07  6.500E-02  3.825E+02  2.930E+02
  0.000E+00  1.168E-01  1.018E+05  2.586E-07  6.500E-02  3.635E+02  2.930E+02
  0.000E+00  1.231E-01  1.018E+05  1.922E-07  6.500E-02  3.460E+02  2.930E+02
  0.000E+00  1.294E-01  1.018E+05  1.786E-07  6.500E-02  3.314E+02  2.930E+02
  0.000E+00  1.357E-01  1.018E+05  1.385E-07  6.500E-02  3.199E+02  2.930E+02
  0.000E+00  1.420E-01  1.017E+05  1.381E-07  6.500E-02  3.113E+02  2.930E+02
  0.000E+00  1.483E-01  1.017E+05  1.194E-07  6.500E-02  3.052E+02  2.930E+02
  0.000E+00  1.547E-01  1.017E+05  1.144E-07  6.500E-02  3.009E+02  2.930E+02
  0.000E+00  1.610E-01  1.017E+05  1.042E-07  6.500E-02  2.980E+02  2.930E+02
  0.000E+00  1.673E-01  1.017E+05  9.731E-08  6.500E-02  2.961E+02  2.930E+02
  0.000E+00  1.736E-01  1.017E+05  9.042E-08  6.500E-02  2.949E+02  2.930E+02
  0.000E+00  1.799E-01  1.017E+05  8.573E-08  6.500E-02  2.941E+02  2.930E+02
  0.000E+00  1.862E-01  1.017E+05  8.284E-08  6.500E-02  2.936E+02  2.930E+02
  0.000E+00  1.925E-01  1.017E+05  8.087E-08  6.500E-02  2.934E+02  2.930E+02
  0.000E+00  1.988E-01  1.017E+05  7.504E-08  6.500E-02  2.932E+02  2.930E+02
  0.000E+00  2.052E-01  1.017E+05  6.992E-08  6.500E-02  2.931E+02  2.930E+02
  0.000E+00  2.115E-01  1.017E+05  6.672E-08  6.500E-02  2.931E+02  2.930E+02
  0.000E+00  2.178E-01  1.017E+05  6.433E-08  6.500E-02  2.930E+02  2.930E+02
  0.000E+00  2.241E-01  1.017E+05  6.053E-08  6.500E-02  2.930E+02  2.930E+02
  0.000E+00  2.304E-01  1.016E+05  5.976E-08  6.500E-02  2.930E+02  2.930E+02
  0.000E+00  2.367E-01  1.016E+05  3.105E-08  6.500E-02  2.930E+02  2.930E+02
  0.000E+00  2.430E-01  1.016E+05  5.479E-08  6.500E-02  2.930E+02  2.930E+02
  0.000E+00  2.493E-01  1.016E+05 -1.564E-07  6.500E-02  2.930E+02  2.930E+02
  0.000E+00  2.557E-01  1.016E+05  4.252E-08  6.500E-02  2.930E+02  2.930E+02
  0.000E+00  2.620E-01  1.016E+05  2.011E-08  6.500E-02  2.930E+02  2.930E+02
  0.000E+00  2.683E-01  1.016E+05  3.241E-08  6.500E-02  2.930E+02  2.930E+02
  0.000E+00  2.746E-01  1.016E+05  3.120E-08  6.500E-02  2.930E+02  2.930E+02
  0.000E+00  2.809E-01  1.016E+05  2.966E-08  6.500E-02  2.930E+02  2.930E+02
  0.000E+00  2.872E-01  1.016E+05  2.733E-08  6.500E-02  2.930E+02  2.930E+02
  0.000E+00  2.935E-01  1.016E+05  2.491E-08  6.500E-02  2.930E+02  2.930E+02
  0.000E+00  2.998E-01  1.016E+05  2.259E-08  6.500E-02  2.930E+02  2.930E+02
  0.000E+00  3.062E-01  1.016E+05  2.044E-08  6.500E-02  2.930E+02  2.930E+02
  0.000E+00  3.125E-01  1.015E+05  1.845E-08  6.500E-02  2.930E+02  2.930E+02
  0.000E+00  3.188E-01  1.015E+05  1.663E-08  6.500E-02  2.930E+02  2.930E+02
  0.000E+00  3.251E-01  1.015E+05  1.493E-08  6.500E-02  2.930E+02  2.930E+02
  0.000E+00  3.314E-01  1.015E+05  1.342E-08  6.500E-02  2.930E+02  2.930E+02
  0.000E+00  3.377E-01  1.015E+05  1.206E-08  6.500E-02  2.930E+02  2.930E+02
  0.000E+00  3.440E-01  1.015E+05  1.082E-08  6.500E-02  2.930E+02  2.930E+02
  0.000E+00  3.503E-01  1.015E+05  9.654E-09  6.500E-02  2.930E+02  2.930E+02
  0.000E+00  3.567E-01  1.015E+05  8.608E-09  6.500E-02  2.930E+02  2.930E+02
  0.000E+00  3.630E-01  1.015E+05  7.632E-09  6.500E-02  2.930E+02  2.930E+02
  0.000E+00  3.693E-01  1.015E+05  6.711E-09  6.500E-02  2.930E+02  2.930E+02
  0.000E+00  3.756E-01  1.015E+05  5.876E-09  6.500E-02  2.930E+02  2.930E+02
  0.000E+00  3.819E-01  1.015E+05  5.055E-09  6.500E-02  2.930E+02  2.930E+02
  0.000E+00  3.882E-01  1.015E+05  4.198E-09  6.500E-02  2.930E+02  2.930E+02
  0.000E+00  3.945E-01  1.015E+05  3.144E-09  6.500E-02  2.930E+02  2.930E+02
  0.000E+00  4.008E-01  1.014E+05  1.575E-09  6.500E-02  2.930E+02  2.930E+02
  0.000E+00  4.072E-01  1.014E+05 -1.838E-09  6.500E-02  2.930E+02  2.930E+02
  0.000E+00  4.135E-01  1.014E+05 -6.598E-09  6.500E-02  2.930E+02  2.930E+02
  0.000E+00  4.198E-01  1.014E+05 -2.910E-08  6.499E-02  2.930E+02  2.930E+02
  0.000E+00  4.261E-01  1.014E+05 -2.643E-08  6.499E-02  2.930E+02  2.930E+02
  0.000E+00  4.324E-01  1.014E+05 -2.358E-07  6.499E-02  2.930E+02  2.930E+02
  0.000E+00  4.387E-01  1.014E+05 -2.611E-08  6.500E-02  2.930E+02  2.930E+02
  0.000E+00  4.450E-01  1.014E+05 -2.681E-08  6.500E-02  2.930E+02  2.930E+02
  0.000E+00  4.513E-01  1.014E+05 -1.725E-09  6.500E-02  2.930E+02  2.930E+02
  0.000E+00  4.577E-01  1.014E+05  8.879E-09  6.500E-02  2.930E+02  2.930E+02
  0.000E+00  4.640E-01  1.014E+05  2.167E-08  6.500E-02  2.930E+02  2.930E+02
  0.000E+00  4.703E-01  1.014E+05  5.134E-08  6.500E-02  2.930E+02  2.930E+02
  0.000E+00  4.766E-01  1.014E+05  3.706E-08  6.500E-02  2.930E+02  2.930E+02
  0.000E+00  4.829E-01  1.014E+05  4.484E-07  6.500E-02  2.930E+02  2.930E+02
  0.000E+00  4.892E-01  1.013E+05 -1.671E-06  6.501E-02  2.930E+02  2.930E+02
  0.000E+00  4.955E-01  1.013E+05 -2.319E-05  6.499E-02  2.930E+02  2.930E+02
  0.000E+00  5.018E-01  1.013E+05 -2.934E-07  6.498E-02  2.930E+02  2.930E+02
  0.000E+00  5.050E-01  1.013E+05 -2.934E-07  6.498E-02  2.930E+02  2.930E+02
  6.203E-03  0.000E+00  1.019E+05  0.000E+00  6.500E-02  2.930E+02  2.930E+02
  6.203E-03  3.156E-03  1.019E+05  5.194E-07  6.498E-02  2.935E+02  2.930E+02
  6.203E-03  9.469E-03  1.019E+05  7.103E-07  6.500E-02  2.945E+02  2.930E+02
  6.203E-03  1.578E-02  1.019E+05  6.773E-07  6.500E-02  2.959E+02  2.930E+02
  6.203E-03  2.209E-02  1.019E+05  8.014E-07  6.500E-02  2.979E+02  2.930E+02
  6.203E-03  2.841E-02  1.019E+05  9.425E-07  6.500E-02  3.008E+02  2.930E+02
  6.203E-03  3.472E-02  1.019E+05  7.199E-07  6.500E-02  3.052E+02  2.930E+02
  6.203E-03  4.103E-02  1.019E+05  4.845E-07  6.500E-02  3.113E+02  2.930E+02
  6.203E-03  4.734E-02  1.019E+05  4.427E-07  6.500E-02  3.199E+02  2.930E+02
  6.203E-03  5.366E-02  1.019E+05  2.080E-07  6.500E-02  3.314E+02  2.930E+02
  6.203E-03  5.997E-02  1.018E+05  3.693E-07  6.500E-02  3.460E+02  2.930E+02
  6.203E-03  6.628E-02  1.018E+05  3.517E-07  6.500E-02  3.635E+02  2.930E+02
  6.203E-03  7.259E-02  1.018E+05  3.787E-07  6.500E-02  3.825E+02  2.930E+02
  6.203E-03  7.891E-02  1.018E+05  4.137E-07  6.500E-02  4.004E+02  2.930E+02
  6.203E-03  8.522E-02  1.018E+05  4.154E-07  6.500E-02  4.136E+02  2.930E+02
  6.203E-03  9.153E-02  1.018E+05  4.693E-07  6.500E-02  4.185E+02  2.930E+02
  6.203E-03  9.784E-02  1.018E+05  4.014E-07  6.500E-02  4.136E+02  2.930E+02
  6.203E-03  1.042E-01  1.018E+05  4.047E-07  6.500E-02  4.004E+02  2.930E+02
  6.203E-03  1.105E-01  1.018E+05  2.963E-07  6.500E-02  3.825E+02  2.930E+02
  6.203E-03  1.168E-01  1.018E+05  2.586E-07  6.500E-02  3.635E+02  2.930E+02
  6.203E-03  1.231E-01  1.018E+05  1.922E-07  6.500E-02  3.460E+02  2.930E+02
  6.203E-03  1.294E-01  1.018E+05  1.786E-07  6.500E-02  3.314E+02  2.930E+02
  6.203E-03  1.357E-01  1.018E+05  1.385E-07  6.500E-02  3.199E+02  2.930E+02
  6.203E-03  1.420E-01  1.017E+05  1.381E-07  6.500E-02  3.113E+02  2.930E+02
  6.203E-03  1.483E-01  1.017E+05  1.194E-07  6.500E-02  3.052E+02  2.930E+02
  6.203E-03  1.547E-01  1.017E+05  1.144E-07  6.500E-02  3.009E+02  2.930E+02
  6.203E-03  1.610E-01  1.017E+05  1.042E-07  6.500E-02  2.980E+02  2.930E+02
  6.203E-03  1.673E-01  1.017E+05  9.731E-08  6.500E-02  2.961E+02  2.930E+02
  6.203E-03  1.736E-01  1.017E+05  9.042E-08  6.500E-02  2.949E+02  2.930E+02
  6.203E-03  1.799E-01  1.017E+05  8.573E-08  6.500E-02  2.941E+02  2.930E+02
  6.203E-03  1.862E-01  1.017E+05  8.284E-08  6.500E-02  2.936E+02  2.930E+02
  6.203E-03  1.925E-01  1.017E+05  8.087E-08  6.500E-02  2.934E+02  2.930E+02
  6.203E-03  1.988E-01  1.017E+05  7.504E-08  6.500E-02  2.932E+02  2.930E+02
  6.203E-03  2.052E-01  1.017E+05  6.992E-08  6.500E-02  2.931E+02  2.930E+02
  6.203E-03  2.115E-01  1.017E+05  6.672E-08  6.500E-02  2.931E+02  2.930E+02
  6.203E-03  2.178E-01  1.017E+05  6.433E-08  6.500E-02  2.930E+02  2.930E+02
  6.203E-03  2.241E-01  1.017E+05  6.053E-08  6.500E-02  2.930E+02  2.930E+02
  6.203E-03  2.304E-01  1.016E+05  5.976E-08  6.500E-02  2.930E+02  2.930E+02
  6.203E-03  2.367E-01  1.016E+05  3.105E-08  6.500E-02  2.930E+02  2.930E+02
  6.203E-03  2.430E-01  1.016E+05  5.479E-08  6.500E-02  2.930E+02  2.930E+02
  6.203E-03  2.493E-01  1.016E+05 -1.564E-07  6.500E-02  2.930E+02  2.930E+02
  6.203E-03  2.557E-01  1.016E+05  4.252E-08  6.500E-02  2.930E+02  2.930E+02
  6.203E-03  2.620E-01  1.016E+05  2.011E-08  6.500E-02  2.930E+02  2.930E+02
  6.203E-03  2.683E-01  1.016E+05  3.241E-08  6.500E-02  2.930E+02  2.930E+02
  6.203E-03  2.746E-01  1.016E+05  3.120E-08  6.500E-02  2.930E+02  2.930E+02
  6.203E-03  2.809E-01  1.016E+05  2.966E-08  6.500E-02  2.930E+02  2.930E+02
  6.203E-03  2.872E-01  1.016E+05  2.733E-08  6.500E-02  2.930E+02  2.930E+02
  6.203E-03  2.935E-01  1.016E+05  2.491E-08  6.500E-02  2.930E+02  2.930E+02
  6.203E-03  2.998E-01  1.016E+05  2.259E-08  6.500E-02  2.930E+02  2.930E+02
  6.203E-03  3.062E-01  1.016E+05  2.044E-08  6.500E-02  2.930E+02  2.930E+02
  6.203E-03  3.125E-01  1.015E+05  1.845E-08  6.500E-02  2.930E+02  2.930E+02
  6.203E-03  3.188E-01  1.015E+05  1.663E-08  6.500E-02  2.930E+02  2.930E+02
  6.203E-03  3.251E-01  1.015E+05  1.493E-08  6.500E-02  2.930E+02  2.930E+02
  6.203E-03  3.314E-01  1.015E+05  1.342E-08  6.500E-02  2.930E+02  2.930E+02
  6.203E-03  3.377E-01  1.015E+05  1.206E-08  6.500E-02  2.930E+02  2.930E+02
  6.203E-03  3.440E-01  1.015E+05  1.082E-08  6.500E-02  2.930E+02  2.930E+02
  6.203E-03  3.503E-01  1.015E+05  9.654E-09  6.500E-02  2.930E+02  2.930E+02
  6.203E-03  3.567E-01  1.015E+05  8.608E-09  6.500E-02  2.930E+02  2.930E+02
  6.203E-03  3.630E-01  1.015E+05  7.632E-09  6.500E-02  2.930E+02  2.930E+02
  6.203E-03  3.693E-01  1.015E+05  6.711E-09  6.500E-02  2.930E+02  2.930E+02
  6.203E-03  3.756E-01  1.015E+05  5.876E-09  6.500E-02  2.930E+02  2.930E+02
  6.203E-03  3.819E-01  1.015E+05  5.055E-09  6.500E-02  2.930E+02  2.930E+02
  6.203E-03  3.882E-01  1.015E+05  4.198E-09  6.500E-02  2.930E+02  2.930E+02
  6.203E-03  3.945E-01  1.015E+05  3.144E-09  6.500E-02  2.930E+02  2.930E+02
  6.203E-03  4.008E-01  1.014E+05  1.575E-09  6.500E-02  2.930E+02  2.930E+02
  6.203E-03  4.072E-01  1.014E+05 -1.838E-09  6.500E-02  2.930E+02  2.930E+02
  6.203E-03  4.135E-01  1.014E+05 -6.598E-09  6.500E-02  2.930E+02  2.930E+02
  6.203E-03  4.198E-01  1.014E+05 -2.910E-08  6.499E-02  2.930E+02  2.930E+02
  6.203E-03  4.261E-01  1.014E+05 -2.643E-08  6.499E-02  2.930E+02  2.930E+02
  6.203E-03  4.324E-01  1.014E+05 -2.358E-07  6.499E-02  2.930E+02  2.930E+02
  6.203E-03  4.387E-01  1.014E+05 -2.611E-08  6.500E-02  2.930E+02  2.930E+02
  6.203E-03  4.450E-01  1.014E+05 -2.681E-08  6.500E-02  2.930E+02  2.930E+02
  6.203E-03  4.513E-01  1.014E+05 -1.725E-09  6.500E-02  2.930E+02  2.930E+02
  6.203E-03  4.577E-01  1.014E+05  8.879E-09  6.500E-02  2.930E+02  2.930E+02
  6.203E-03  4.640E-01  1.014E+05  2.167E-08  6.500E-02  2.930E+02  2.930E+02
  6.203E-03  4.703E-01  1.014E+05  5.134E-08  6.500E-02  2.930E+02  2.930E+02
  6.203E-03  4.766E-01  1.014E+05  3.706E-08  6.500E-02  2.930E+02  2.930E+02
  6.203E-03  4.829E-01  1.014E+05  4.484E-07  6.500E-02  2.930E+02  2.930E+02
  6.203E-03  4.892E-01  1.013E+05 -1.671E-06  6.501E-02  2.930E+02  2.930E+02
  6.203E-03  4.955E-01  1.013E+05 -2.319E-05  6.499E-02  2.930E+02  2.930E+02
  6.203E-03  5.018E-01  1.013E+05 -2.934E-07  6.498E-02  2.930E+02  2.930E+02
  6.203E-03  5.050E-01  1.013E+05  0.000E+00  6.498E-02  2.930E+02  2.930E+02
  1.861E-02  0.000E+00  1.019E+05  0.000E+00  6.500E-02  2.930E+02  2.930E+02
  1.861E-02  3.156E-03  1.019E+05  1.485E-06  6.498E-02  2.935E+02  2.930E+02
  1.861E-02  9.469E-03  1.019E+05  1.661E-06  6.500E-02  2.945E+02  2.930E+02
  1.861E-02  1.578E-02  1.019E+05  1.631E-06  6.500E-02  2.959E+02  2.930E+02
  1.861E-02  2.209E-02  1.019E+05  1.585E-06  6.500E-02  2.979E+02  2.930E+02
  1.861E-02  2.841E-02  1.019E+05  1.369E-06  6.500E-02  3.008E+02  2.930E+02
  1.861E-02  3.472E-02  1.019E+05  1.249E-06  6.500E-02  3.052E+02  2.930E+02
  1.861E-02  4.103E-02  1.019E+05  7.545E-07  6.500E-02  3.113E+02  2.930E+02
  1.861E-02  4.734E-02  1.019E+05  8.930E-07  6.500E-02  3.199E+02  2.930E+02
  1.861E-02  5.366E-02  1.019E+05  6.417E-07  6.500E-02  3.314E+02  2.930E+02
  1.861E-02  5.997E-02  1.018E+05  8.144E-07  6.500E-02  3.460E+02  2.930E+02
  1.861E-02  6.628E-02  1.018E+05  8.019E-07  6.500E-02  3.635E+02  2.930E+02
  1.861E-02  7.259E-02  1.018E+05  7.739E-07  6.500E-02  3.825E+02  2.930E+02
  1.861E-02  7.891E-02  1.018E+05  8.329E-07  6.500E-02  4.004E+02  2.930E+02
  1.861E-02  8.522E-02  1.018E+05  6.289E-07  6.500E-02  4.136E+02  2.930E+02
  1.861E-02  9.153E-02  1.018E+05  9.327E-07  6.500E-02  4.185E+02  2.930E+02
  1.861E-02  9.784E-02  1.018E+05  6.175E-07  6.500E-02  4.136E+02  2.930E+02
  1.861E-02  1.042E-01  1.018E+05  7.780E-07  6.500E-02  4.004E+02  2.930E+02
  1.861E-02  1.105E-01  1.018E+05  4.400E-07  6.500E-02  3.825E+02  2.930E+02
  1.861E-02  1.168E-01  1.018E+05  5.778E-07  6.500E-02  3.635E+02  2.930E+02
  1.861E-02  1.231E-01  1.018E+05  2.305E-07  6.500E-02  3.460E+02  2.930E+02
  1.861E-02  1.294E-01  1.018E+05  4.077E-07  6.500E-02  3.314E+02  2.930E+02
  1.861E-02  1.357E-01  1.018E+05  1.333E-07  6.500E-02  3.199E+02  2.930E+02
  1.861E-02  1.420E-01  1.017E+05  3.356E-07  6.500E-02  3.113E+02  2.930E+02
  1.861E-02  1.483E-01  1.017E+05  2.744E-07  6.500E-02  3.052E+02  2.930E+02
  1.861E-02  1.547E-01  1.017E+05  2.956E-07  6.500E-02  3.009E+02  2.930E+02
  1.861E-02  1.610E-01  1.017E+05  2.665E-07  6.500E-02  2.980E+02  2.930E+02
  1.861E-02  1.673E-01  1.017E+05  2.555E-07  6.500E-02  2.961E+02  2.930E+02
  1.861E-02  1.736E-01  1.017E+05  2.343E-07  6.500E-02  2.949E+02  2.930E+02
  1.861E-02  1.799E-01  1.017E+05  2.253E-07  6.500E-02  2.941E+02  2.930E+02
  1.861E-02  1.862E-01  1.017E+05  2.119E-07  6.500E-02  2.936E+02  2.930E+02
  1.861E-02  1.925E-01  1.017E+05  2.008E-07  6.500E-02  2.934E+02  2.930E+02
  1.861E-02  1.988E-01  1.017E+05  1.913E-07  6.500E-02  2.932E+02  2.930E+02
  1.861E-02  2.052E-01  1.017E+05  1.833E-07  6.500E-02  2.931E+02  2.930E+02
  1.861E-02  2.115E-01  1.017E+05  1.747E-07  6.500E-02  2.931E+02  2.930E+02
  1.861E-02  2.178E-01  1.017E+05  1.718E-07  6.500E-02  2.930E+02  2.930E+02
  1.861E-02  2.241E-01  1.017E+05  1.578E-07  6.500E-02  2.930E+02  2.930E+02
  1.861E-02  2.304E-01  1.016E+05  1.992E-07  6.500E-02  2.930E+02  2.930E+02
  1.861E-02  2.367E-01  1.016E+05  1.930E-08  6.500E-02  2.930E+02  2.930E+02
  1.861E-02  2.430E-01  1.016E+05  5.581E-07  6.500E-02  2.930E+02  2.930E+02
  1.861E-02  2.493E-01  1.016E+05  6.246E-07  6.500E-02  2.930E+02  2.930E+02
  1.861E-02  2.557E-01  1.016E+05  5.533E-07  6.500E-02  2.930E+02  2.930E+02
  1.861E-02  2.620E-01  1.016E+05  2.205E-07  6.500E-02  2.930E+02  2.930E+02
  1.861E-02  2.683E-01  1.016E+05  1.635E-07  6.500E-02  2.930E+02  2.930E+02
  1.861E-02  2.746E-01  1.016E+05  1.199E-07  6.500E-02  2.930E+02  2.930E+02
  1.861E-02  2.809E-01  1.016E+05  9.463E-08  6.500E-02  2.930E+02  2.930E+02
  1.861E-02  2.872E-01  1.016E+05  7.900E-08  6.500E-02  2.930E+02  2.930E+02
  1.861E-02  2.935E-01  1.016E+05  6.823E-08  6.500E-02  2.930E+02  2.930E+02
  1.861E-02  2.998E-01  1.016E+05  6.018E-08  6.500E-02  2.930E+02  2.930E+02
  1.861E-02  3.062E-01  1.016E+05  5.372E-08  6.500E-02  2.930E+02  2.930E+02
  1.861E-02  3.125E-01  1.015E+05  4.824E-08  6.500E-02  2.930E+02  2.930E+02
  1.861E-02  3.188E-01  1.015E+05  4.336E-08  6.500E-02  2.930E+02  2.930E+02
  1.861E-02  3.251E-01  1.015E+05  3.898E-08  6.500E-02  2.930E+02  2.930E+02
  1.861E-02  3.314E-01  1.015E+05  3.498E-08  6.500E-02  2.930E+02  2.930E+02
  1.861E-02  3.377E-01  1.015E+05  3.139E-08  6.500E-02  2.930E+02  2.930E+02
  1.861E-02  3.440E-01  1.015E+05  2.817E-08  6.500E-02  2.930E+02  2.930E+02
  1.861E-02  3.503E-01  1.015E+05  2.517E-08  6.500E-02  2.930E+02  2.930E+02
  1.861E-02  3.567E-01  1.015E+05  2.245E-08  6.500E-02  2.930E+02  2.930E+02
  1.861E-02  3.630E-01  1.015E+05  2.000E-08  6.500E-02  2.930E+02  2.930E+02
  1.861E-02  3.693E-01  1.015E+05  1.786E-08  6.500E-02  2.930E+02  2.930E+02
  1.861E-02  3.756E-01  1.015E+05  1.615E-08  6.500E-02  2.930E+02  2.930E+02
  1.861E-02  3.819E-01  1.015E+05  1.508E-08  6.500E-02  2.930E+02  2.930E+02
  1.861E-02  3.882E-01  1.015E+05  1.522E-08  6.500E-02  2.930E+02  2.930E+02
  1.861E-02  3.945E-01  1.015E+05  1.761E-08  6.500E-02  2.930E+02  2.930E+02
  1.861E-02  4.008E-01  1.014E+05  2.481E-08  6.500E-02  2.930E+02  2.930E+02
  1.861E-02  4.072E-01  1.014E+05  3.958E-08  6.500E-02  2.930E+02  2.930E+02
  1.861E-02  4.135E-01  1.014E+05  7.957E-08  6.500E-02  2.930E+02  2.930E+02
  1.861E-02  4.198E-01  1.014E+05  1.229E-07  6.499E-02  2.930E+02  2.930E+02
  1.861E-02  4.261E-01  1.014E+05  3.657E-07  6.499E-02  2.930E+02  2.930E+02
  1.861E-02  4.324E-01  1.014E+05  3.815E-07  6.499E-02  2.930E+02  2.930E+02
  1.861E-02  4.387E-01  1.014E+05  3.650E-07  6.500E-02  2.930E+02  2.930E+02
  1.861E-02  4.450E-01  1.014E+05  1.214E-07  6.500E-02  2.930E+02  2.930E+02
  1.861E-02  4.513E-01  1.014E+05  7.716E-08  6.500E-02  2.930E+02  2.930E+02
  1.861E-02  4.577E-01  1.014E+05  3.729E-08  6.500E-02  2.930E+02  2.930E+02
  1.861E-02  4.640E-01  1.014E+05  2.082E-08  6.500E-02  2.930E+02  2.930E+02
  1.861E-02  4.703E-01  1.014E+05  2.096E-08  6.500E-02  2.930E+02  2.930E+02
  1.861E-02  4.766E-01  1.014E+05 -4.340E-08  6.500E-02  2.930E+02  2.930E+02
  1.861E-02  4.829E-01  1.014E+05  2.958E-07  6.500E-02  2.930E+02  2.930E+02
  1.861E-02  4.892E-01  1.013E+05 -2.062E-06  6.500E-02  2.930E+02  2.930E+02
  1.861E-02  4.955E-01  1.013E+05 -6.364E-06  6.500E-02  2.930E+02  2.930E+02
  1.861E-02  5.018E-01  1.013E+05 -4.761E-07  6.499E-02  2.930E+02  2.930E+02
  1.861E-02  5.050E-01  1.013E+05  0.000E+00  6.499E-02  2.930E+02  2.930E+02
  3.102E-02  0.000E+00  1.019E+05  0.000E+00  6.500E-02  2.930E+02  2.930E+02
  3.102E-02  3.156E-03  1.019E+05  1.251E-06  6.498E-02  2.935E+02  2.930E+02
  3.102E-02  9.469E-03  1.019E+05  1.537E-06  6.500E-02  2.945E+02  2.930E+02
  3.102E-02  1.578E-02  1.019E+05  1.371E-06  6.500E-02  2.959E+02  2.930E+02
  3.102E-02  2.209E-02  1.019E+05  1.403E-06  6.500E-02  2.979E+02  2.930E+02
  3.102E-02  2.841E-02  1.019E+05  9.950E-07  6.500E-02  3.008E+02  2.930E+02
  3.102E-02  3.472E-02  1.019E+05  1.118E-06  6.500E-02  3.052E+02  2.930E+02
  3.102E-02  4.103E-02  1.019E+05  8.334E-07  6.500E-02  3.113E+02  2.930E+02
  3.102E-02  4.734E-02  1.019E+05  9.905E-07  6.500E-02  3.199E+02  2.930E+02
  3.102E-02  5.366E-02  1.019E+05  9.798E-07  6.500E-02  3.314E+02  2.930E+02
  3.102E-02  5.997E-02  1.018E+05  9.259E-07  6.500E-02  3.460E+02  2.930E+02
  3.102E-02  6.628E-02  1.018E+05  9.913E-07  6.500E-02  3.635E+02  2.930E+02
  3.102E-02  7.259E-02  1.018E+05  5.914E-07  6.500E-02  3.825E+02  2.930E+02
  3.102E-02  7.891E-02  1.018E+05  1.207E-06  6.500E-02  4.004E+02  2.930E+02
  3.102E-02  8.522E-02  1.018E+05  9.572E-07  6.500E-02  4.136E+02  2.930E+02
  3.102E-02  9.153E-02  1.018E+05  1.524E-06  6.500E-02  4.185E+02  2.930E+02
  3.102E-02  9.784E-02  1.018E+05  1.260E-06  6.500E-02  4.136E+02  2.930E+02
  3.102E-02  1.042E-01  1.018E+05  1.564E-06  6.500E-02  4.004E+02  2.930E+02
  3.102E-02  1.105E-01  1.018E+05  1.164E-06  6.500E-02  3.825E+02  2.930E+02
  3.102E-02  1.168E-01  1.018E+05  1.356E-06  6.500E-02  3.635E+02  2.930E+02
  3.102E-02  1.231E-01  1.018E+05  7.378E-07  6.500E-02  3.460E+02  2.930E+02
  3.102E-02  1.294E-01  1.018E+05  1.087E-06  6.500E-02  3.314E+02  2.930E+02
  3.102E-02  1.357E-01  1.018E+05  6.180E-07  6.500E-02  3.199E+02  2.930E+02
  3.102E-02  1.420E-01  1.017E+05  8.158E-07  6.500E-02  3.113E+02  2.930E+02
  3.102E-02  1.483E-01  1.017E+05  3.665E-07  6.500E-02  3.052E+02  2.930E+02
  3.102E-02  1.547E-01  1.017E+05  5.246E-07  6.500E-02  3.009E+02  2.930E+02
  3.102E-02  1.610E-01  1.017E+05  4.057E-07  6.500E-02  2.980E+02  2.930E+02
  3.102E-02  1.673E-01  1.017E+05  4.036E-07  6.500E-02  2.961E+02  2.930E+02
  3.102E-02  1.736E-01  1.017E+05  3.447E-07  6.500E-02  2.949E+02  2.930E+02
  3.102E-02  1.799E-01  1.017E+05  3.391E-07  6.500E-02  2.941E+02  2.930E+02
  3.102E-02  1.862E-01  1.017E+05  3.117E-07  6.500E-02  2.936E+02  2.930E+02
  3.102E-02  1.925E-01  1.017E+05  2.942E-07  6.500E-02  2.934E+02  2.930E+02
  3.102E-02  1.988E-01  1.017E+05  2.809E-07  6.500E-02  2.932E+02  2.930E+02
  3.102E-02  2.052E-01  1.017E+05  2.729E-07  6.500E-02  2.931E+02  2.930E+02
  3.102E-02  2.115E-01  1.017E+05  2.634E-07  6.500E-02  2.931E+02  2.930E+02
  3.102E-02  2.178E-01  1.017E+05  2.895E-07  6.500E-02  2.930E+02  2.930E+02
  3.102E-02  2.241E-01  1.017E+05  2.848E-07  6.500E-02  2.930E+02  2.930E+02
  3.102E-02  2.304E-01  1.016E+05  5.695E-07  6.500E-02  2.930E+02  2.930E+02
  3.102E-02  2.367E-01  1.016E+05  1.234E-07  6.500E-02  2.930E+02  2.930E+02
  3.102E-02  2.430E-01  1.016E+05  2.374E-06  6.500E-02  2.930E+02  2.930E+02
  3.102E-02  2.493E-01  1.016E+05  5.390E-06  6.500E-02  2.930E+02  2.930E+02
  3.102E-02  2.557E-01  1.016E+05  2.041E-06  6.500E-02  2.930E+02  2.930E+02
  3.102E-02  2.620E-01  1.016E+05 -3.224E-07  6.500E-02  2.930E+02  2.930E+02
  3.102E-02  2.683E-01  1.016E+05  9.824E-08  6.500E-02  2.930E+02  2.930E+02
  3.102E-02  2.746E-01  1.016E+05  6.340E-08  6.500E-02  2.930E+02  2.930E+02
  3.102E-02  2.809E-01  1.016E+05  8.275E-08  6.500E-02  2.930E+02  2.930E+02
  3.102E-02  2.872E-01  1.016E+05  8.415E-08  6.500E-02  2.930E+02  2.930E+02
  3.102E-02  2.935E-01  1.016E+05  8.279E-08  6.500E-02  2.930E+02  2.930E+02
  3.102E-02  2.998E-01  1.016E+05  7.862E-08  6.500E-02  2.930E+02  2.930E+02
  3.102E-02  3.062E-01  1.016E+05  7.332E-08  6.500E-02  2.930E+02  2.930E+02
  3.102E-02  3.125E-01  1.015E+05  6.759E-08  6.500E-02  2.930E+02  2.930E+02
  3.102E-02  3.188E-01  1.015E+05  6.156E-08  6.500E-02  2.930E+02  2.930E+02
  3.102E-02  3.251E-01  1.015E+05  5.585E-08  6.500E-02  2.930E+02  2.930E+02
  3.102E-02  3.314E-01  1.015E+05  5.048E-08  6.500E-02  2.930E+02  2.930E+02
  3.102E-02  3.377E-01  1.015E+05  4.537E-08  6.500E-02  2.930E+02  2.930E+02
  3.102E-02  3.440E-01  1.015E+05  4.066E-08  6.500E-02  2.930E+02  2.930E+02
  3.102E-02  3.503E-01  1.015E+05  3.628E-08  6.500E-02  2.930E+02  2.930E+02
  3.102E-02  3.567E-01  1.015E+05  3.220E-08  6.500E-02  2.930E+02  2.930E+02
  3.102E-02  3.630E-01  1.015E+05  2.833E-08  6.500E-02  2.930E+02  2.930E+02
  3.102E-02  3.693E-01  1.015E+05  2.454E-08  6.500E-02  2.930E+02  2.930E+02
  3.102E-02  3.756E-01  1.015E+05  2.058E-08  6.500E-02  2.930E+02  2.930E+02
  3.102E-02  3.819E-01  1.015E+05  1.615E-08  6.500E-02  2.930E+02  2.930E+02
  3.102E-02  3.882E-01  1.015E+05  1.082E-08  6.500E-02  2.930E+02  2.930E+02
  3.102E-02  3.945E-01  1.015E+05  3.339E-09  6.500E-02  2.930E+02  2.930E+02
  3.102E-02  4.008E-01  1.014E+05 -5.476E-09  6.500E-02  2.930E+02  2.930E+02
  3.102E-02  4.072E-01  1.014E+05 -3.252E-08  6.500E-02  2.930E+02  2.930E+02
  3.102E-02  4.135E-01  1.014E+05  3.339E-09  6.500E-02  2.930E+02  2.930E+02
  3.102E-02  4.198E-01  1.014E+05 -4.237E-07  6.499E-02  2.930E+02  2.930E+02
  3.102E-02  4.261E-01  1.014E+05  1.798E-06  6.499E-02  2.930E+02  2.930E+02
  3.102E-02  4.324E-01  1.014E+05  5.217E-06  6.499E-02  2.930E+02  2.930E+02
  3.102E-02  4.387E-01  1.014E+05  1.812E-06  6.500E-02  2.930E+02  2.930E+02
  3.102E-02  4.450E-01  1.014E+05 -4.280E-07  6.499E-02  2.930E+02  2.930E+02
  3.102E-02  4.513E-01  1.014E+05 -1.158E-08  6.500E-02  2.930E+02  2.930E+02
  3.102E-02  4.577E-01  1.014E+05 -5.336E-08  6.500E-02  2.930E+02  2.930E+02
  3.102E-02  4.640E-01  1.014E+05 -4.029E-08  6.500E-02  2.930E+02  2.930E+02
  3.102E-02  4.703E-01  1.014E+05 -5.383E-08  6.500E-02  2.930E+02  2.930E+02
  3.102E-02  4.766E-01  1.014E+05 -9.450E-08  6.500E-02  2.930E+02  2.930E+02
  3.102E-02  4.829E-01  1.014E+05 -1.475E-07  6.500E-02  2.930E+02  2.930E+02
  3.102E-02  4.892E-01  1.013E+05 -3.927E-07  6.500E-02  2.930E+02  2.930E+02
  3.102E-02  4.955E-01  1.013E+05 -4.332E-07  6.500E-02  2.930E+02  2.930E+02
  3.102E-02  5.018E-01  1.013E+05 -2.353E-07  6.499E-02  2.930E+02  2.930E+02
  3.102E-02  5.050E-01  1.013E+05  0.000E+00  6.499E-02  2.930E+02  2.930E+02
  4.342E-02  0.000E+00  1.019E+05  0.000E+00  6.500E-02  2.930E+02  2.930E+02
  4.342E-02  3.156E-03  1.019E+05  8.362E-07  6.498E-02  2.935E+02  2.930E+02
  4.342E-02  9.469E-03  1.019E+05  1.185E-06  6.500E-02  2.945E+02  2.930E+02
  4.342E-02  1.578E-02  1.019E+05  1.008E-06  6.500E-02  2.959E+02  2.930E+02
  4.342E-02  2.209E-02  1.019E+05  1.230E-06  6.500E-02  2.979E+02  2.930E+02
  4.342E-02  2.841E-02  1.019E+05  1.169E-06  6.500E-02  3.008E+02  2.930E+02
  4.342E-02  3.472E-02  1.019E+05  1.164E-06  6.500E-02  3.052E+02  2.930E+02
  4.342E-02  4.103E-02  1.019E+05  1.175E-06  6.500E-02  3.113E+02  2.930E+02
  4.342E-02  4.734E-02  1.019E+05  9.421E-07  6.500E-02  3.199E+02  2.930E+02
  4.342E-02  5.366E-02  1.019E+05  1.165E-06  6.500E-02  3.314E+02  2.930E+02
  4.342E-02  5.997E-02  1.018E+05  7.369E-07  6.500E-02  3.460E+02  2.930E+02
  4.342E-02  6.628E-02  1.018E+05  1.515E-06  6.500E-02  3.635E+02  2.930E+02
  4.342E-02  7.259E-02  1.018E+05  9.451E-07  6.500E-02  3.825E+02  2.930E+02
  4.342E-02  7.891E-02  1.018E+05  2.954E-06  6.500E-02  4.004E+02  2.930E+02
  4.342E-02  8.522E-02  1.018E+05  5.225E-06  6.500E-02  4.136E+02  2.930E+02
  4.342E-02  9.153E-02  1.018E+05  3.946E-06  6.500E-02  4.185E+02  2.930E+02
  4.342E-02  9.784E-02  1.018E+05  4.542E-06  6.500E-02  4.136E+02  2.930E+02
  4.342E-02  1.042E-01  1.018E+05  3.796E-06  6.500E-02  4.004E+02  2.930E+02
  4.342E-02  1.105E-01  1.018E+05  4.432E-06  6.500E-02  3.825E+02  2.930E+02
  4.342E-02  1.168E-01  1.018E+05  3.753E-06  6.500E-02  3.635E+02  2.930E+02
  4.342E-02  1.231E-01  1.018E+05  4.447E-06  6.500E-02  3.460E+02  2.930E+02
  4.342E-02  1.294E-01  1.018E+05  3.792E-06  6.500E-02  3.314E+02  2.930E+02
  4.342E-02  1.357E-01  1.018E+05  4.965E-06  6.500E-02  3.199E+02  2.930E+02
  4.342E-02  1.420E-01  1.017E+05  2.589E-06  6.500E-02  3.113E+02  2.930E+02
  4.342E-02  1.483E-01  1.017E+05  4.820E-07  6.500E-02  3.052E+02  2.930E+02
  4.342E-02  1.547E-01  1.017E+05  9.956E-07  6.500E-02  3.009E+02  2.930E+02
  4.342E-02  1.610E-01  1.017E+05  3.839E-07  6.500E-02  2.980E+02  2.930E+02
  4.342E-02  1.673E-01  1.017E+05  5.686E-07  6.500E-02  2.961E+02  2.930E+02
  4.342E-02  1.736E-01  1.017E+05  2.489E-07  6.500E-02  2.949E+02  2.930E+02
  4.342E-02  1.799E-01  1.017E+05  4.308E-07  6.500E-02  2.941E+02  2.930E+02
  4.342E-02  1.862E-01  1.017E+05  3.757E-07  6.500E-02  2.936E+02  2.930E+02
  4.342E-02  1.925E-01  1.017E+05  3.774E-07  6.500E-02  2.934E+02  2.930E+02
  4.342E-02  1.988E-01  1.017E+05  3.420E-07  6.500E-02  2.932E+02  2.930E+02
  4.342E-02  2.052E-01  1.017E+05  3.084E-07  6.500E-02  2.931E+02  2.930E+02
  4.342E-02  2.115E-01  1.017E+05  2.178E-07  6.500E-02  2.931E+02  2.930E+02
  4.342E-02  2.178E-01  1.017E+05  2.327E-07  6.500E-02  2.930E+02  2.930E+02
  4.342E-02  2.241E-01  1.017E+05 -4.855E-07  6.500E-02  2.930E+02  2.930E+02
  4.342E-02  2.304E-01  1.016E+05  2.050E-06  6.500E-02  2.930E+02  2.930E+02
  4.342E-02  2.367E-01  1.016E+05  4.898E-06  6.500E-02  2.930E+02  2.930E+02
  4.342E-02  2.430E-01  1.016E+05  3.864E-06  6.501E-02  2.930E+02  2.930E+02
  4.342E-02  2.493E-01  1.016E+05  4.971E-06  6.500E-02  2.930E+02  2.930E+02
  4.342E-02  2.557E-01  1.016E+05  1.989E-06  6.499E-02  2.930E+02  2.930E+02
  4.342E-02  2.620E-01  1.016E+05 -3.090E-07  6.499E-02  2.930E+02  2.930E+02
  4.342E-02  2.683E-01  1.016E+05  1.339E-07  6.500E-02  2.930E+02  2.930E+02
  4.342E-02  2.746E-01  1.016E+05  9.373E-08  6.500E-02  2.930E+02  2.930E+02
  4.342E-02  2.809E-01  1.016E+05  1.141E-07  6.500E-02  2.930E+02  2.930E+02
  4.342E-02  2.872E-01  1.016E+05  1.133E-07  6.500E-02  2.930E+02  2.930E+02
  4.342E-02  2.935E-01  1.016E+05  1.098E-07  6.500E-02  2.930E+02  2.930E+02
  4.342E-02  2.998E-01  1.016E+05  1.031E-07  6.500E-02  2.930E+02  2.930E+02
  4.342E-02  3.062E-01  1.016E+05  9.471E-08  6.500E-02  2.930E+02  2.930E+02
  4.342E-02  3.125E-01  1.015E+05  8.602E-08  6.500E-02  2.930E+02  2.930E+02
  4.342E-02  3.188E-01  1.015E+05  7.845E-08  6.500E-02  2.930E+02  2.930E+02
  4.342E-02  3.251E-01  1.015E+05  7.150E-08  6.500E-02  2.930E+02  2.930E+02
  4.342E-02  3.314E-01  1.015E+05  6.449E-08  6.500E-02  2.930E+02  2.930E+02
  4.342E-02  3.377E-01  1.015E+05  5.790E-08  6.500E-02  2.930E+02  2.930E+02