VARIABLES="XP","YP","P","U","V","TS","TF"
ZONE T="Zone 001"I=    82 J=    12 F=POINT
  0.000E+00  0.000E+00  1.013E+05 -5.053E-09  1.147E-04  2.930E+02  3.206E+02
  0.000E+00  3.156E-03  1.013E+05 -5.053E-09  1.147E-04  2.930E+02  3.206E+02
  0.000E+00  9.469E-03  1.013E+05 -5.215E-09  6.375E-04  2.930E+02  3.759E+02
  0.000E+00  1.578E-02  1.013E+05 -5.277E-09  1.047E-03  2.930E+02  4.310E+02
  0.000E+00  2.209E-02  1.013E+05 -5.432E-09  1.506E-03  2.930E+02  4.858E+02
  0.000E+00  2.841E-02  1.013E+05 -5.603E-09  1.973E-03  2.930E+02  5.406E+02
  0.000E+00  3.472E-02  1.013E+05 -5.797E-09  2.463E-03  2.930E+02  5.952E+02
  0.000E+00  4.103E-02  1.013E+05 -5.987E-09  2.978E-03  2.930E+02  6.494E+02
  0.000E+00  4.734E-02  1.013E+05 -6.160E-09  3.523E-03  2.930E+02  7.034E+02
  0.000E+00  5.366E-02  1.013E+05 -6.272E-09  4.119E-03  2.930E+02  7.570E+02
  0.000E+00  5.997E-02  1.013E+05 -6.269E-09  4.754E-03  2.930E+02  8.102E+02
  0.000E+00  6.628E-02  1.013E+05 -6.113E-09  5.419E-03  2.930E+02  8.639E+02
  0.000E+00  7.259E-02  1.013E+05 -5.723E-09  6.140E-03  2.931E+02  9.195E+02
  0.000E+00  7.891E-02  1.013E+05 -4.871E-09  6.895E-03  2.935E+02  9.858E+02
  0.000E+00  8.522E-02  1.013E+05 -3.871E-09  7.555E-03  2.966E+02  1.106E+03
  0.000E+00  9.153E-02  1.013E+05 -4.153E-10  9.382E-03  3.156E+02  1.532E+03
  0.000E+00  9.784E-02  1.013E+05  3.034E-09  7.610E-03  2.966E+02  1.566E+03
  0.000E+00  1.042E-01  1.013E+05  3.997E-09  6.991E-03  2.935E+02  1.598E+03
  0.000E+00  1.105E-01  1.013E+05  4.775E-09  6.295E-03  2.931E+02  1.628E+03
  0.000E+00  1.168E-01  1.013E+05  5.084E-09  5.643E-03  2.930E+02  1.654E+03
  0.000E+00  1.231E-01  1.013E+05  5.144E-09  5.044E-03  2.930E+02  1.673E+03
  0.000E+00  1.294E-01  1.013E+05  5.046E-09  4.493E-03  2.930E+02  1.682E+03
  0.000E+00  1.357E-01  1.013E+05  4.846E-09  3.980E-03  2.930E+02  1.681E+03
  0.000E+00  1.420E-01  1.013E+05  4.561E-09  3.505E-03  2.930E+02  1.666E+03
  0.000E+00  1.483E-01  1.013E+05  4.225E-09  3.088E-03  2.930E+02  1.637E+03
  0.000E+00  1.547E-01  1.013E+05  3.892E-09  2.727E-03  2.930E+02  1.595E+03
  0.000E+00  1.610E-01  1.013E+05  3.572E-09  2.387E-03  2.930E+02  1.539E+03
  0.000E+00  1.673E-01  1.013E+05  3.236E-09  2.074E-03  2.930E+02  1.473E+03
  0.000E+00  1.736E-01  1.013E+05  2.900E-09  1.811E-03  2.930E+02  1.399E+03
  0.000E+00  1.799E-01  1.013E+05  2.594E-09  1.583E-03  2.930E+02  1.319E+03
  0.000E+00  1.862E-01  1.013E+05  2.312E-09  1.379E-03  2.930E+02  1.237E+03
  0.000E+00  1.925E-01  1.013E+05  2.054E-09  1.200E-03  2.930E+02  1.154E+03
  0.000E+00  1.988E-01  1.013E+05  1.821E-09  1.043E-03  2.930E+02  1.073E+03
  0.000E+00  2.052E-01  1.013E+05  1.610E-09  9.029E-04  2.930E+02  9.949E+02
  0.000E+00  2.115E-01  1.013E+05  1.412E-09  7.750E-04  2.930E+02  9.211E+02
  0.000E+00  2.178E-01  1.013E+05  1.225E-09  6.679E-04  2.930E+02  8.523E+02
  0.000E+00  2.241E-01  1.013E+05  1.067E-09  5.865E-04  2.930E+02  7.891E+02
  0.000E+00  2.304E-01  1.013E+05  9.450E-10  5.094E-04  2.930E+02  7.313E+02
  0.000E+00  2.367E-01  1.013E+05  8.304E-10  4.285E-04  2.930E+02  6.788E+02
  0.000E+00  2.430E-01  1.013E+05  7.081E-10  3.600E-04  2.930E+02  6.317E+02
  0.000E+00  2.493E-01  1.013E+05  5.975E-10  3.140E-04  2.930E+02  5.897E+02
  0.000E+00  2.557E-01  1.013E+05  5.129E-10  2.757E-04  2.930E+02  5.524E+02
  0.000E+00  2.620E-01  1.013E+05  4.428E-10  2.383E-04  2.930E+02  5.193E+02
  0.000E+00  2.683E-01  1.013E+05  3.855E-10  2.095E-04  2.930E+02  4.901E+02
  0.000E+00  2.746E-01  1.013E+05  3.422E-10  1.805E-04  2.930E+02  4.645E+02
  0.000E+00  2.809E-01  1.013E+05  3.006E-10  1.509E-04  2.930E+02  4.419E+02
  0.000E+00  2.872E-01  1.013E+05  2.589E-10  1.263E-04  2.930E+02  4.222E+02
  0.000E+00  2.935E-01  1.013E+05  2.194E-10  1.052E-04  2.930E+02  4.050E+02
  0.000E+00  2.998E-01  1.013E+05  1.792E-10  8.629E-05  2.930E+02  3.900E+02
  0.000E+00  3.062E-01  1.013E+05  1.402E-10  7.534E-05  2.930E+02  3.769E+02
  0.000E+00  3.125E-01  1.013E+05  1.163E-10  7.308E-05  2.930E+02  3.656E+02
  0.000E+00  3.188E-01  1.013E+05  1.076E-10  6.632E-05  2.930E+02  3.557E+02
  0.000E+00  3.251E-01  1.013E+05  1.001E-10  5.572E-05  2.930E+02  3.471E+02
  0.000E+00  3.314E-01  1.013E+05  9.428E-11  4.833E-05  2.930E+02  3.397E+02
  0.000E+00  3.377E-01  1.013E+05  9.056E-11  3.682E-05  2.930E+02  3.333E+02
  0.000E+00  3.440E-01  1.013E+05  7.232E-11  1.900E-05  2.930E+02  3.277E+02
  0.000E+00  3.503E-01  1.013E+05  4.129E-11  1.386E-05  2.930E+02  3.229E+02
  0.000E+00  3.567E-01  1.013E+05  2.533E-11  2.127E-05  2.930E+02  3.188E+02
  0.000E+00  3.630E-01  1.013E+05  2.550E-11  2.196E-05  2.930E+02  3.152E+02
  0.000E+00  3.693E-01  1.013E+05  2.539E-11  1.802E-05  2.930E+02  3.121E+02
  0.000E+00  3.756E-01  1.013E+05  2.306E-11  1.544E-05  2.930E+02  3.094E+02
  0.000E+00  3.819E-01  1.013E+05  2.069E-11  1.311E-05  2.930E+02  3.071E+02
  0.000E+00  3.882E-01  1.013E+05  1.817E-11  1.115E-05  2.930E+02  3.052E+02
  0.000E+00  3.945E-01  1.013E+05  1.600E-11  9.481E-06  2.930E+02  3.035E+02
  0.000E+00  4.008E-01  1.013E+05  1.424E-11  8.062E-06  2.930E+02  3.020E+02
  0.000E+00  4.072E-01  1.013E+05  1.279E-11  6.857E-06  2.930E+02  3.007E+02
  0.000E+00  4.135E-01  1.013E+05  1.164E-11  5.835E-06  2.930E+02  2.997E+02
  0.000E+00  4.198E-01  1.013E+05  1.054E-11  4.969E-06  2.930E+02  2.987E+02
  0.000E+00  4.261E-01  1.013E+05  9.375E-12  4.235E-06  2.930E+02  2.980E+02
  0.000E+00  4.324E-01  1.013E+05  8.138E-12  3.615E-06  2.930E+02  2.973E+02
  0.000E+00  4.387E-01  1.013E+05  6.974E-12  3.092E-06  2.930E+02  2.967E+02
  0.000E+00  4.450E-01  1.013E+05  5.774E-12  2.653E-06  2.930E+02  2.962E+02
  0.000E+00  4.513E-01  1.013E+05  4.777E-12  2.286E-06  2.930E+02  2.958E+02
  0.000E+00  4.577E-01  1.013E+05  3.871E-12  1.981E-06  2.930E+02  2.955E+02
  0.000E+00  4.640E-01  1.013E+05  3.333E-12  1.730E-06  2.930E+02  2.952E+02
  0.000E+00  4.703E-01  1.013E+05  3.006E-12  1.526E-06  2.930E+02  2.949E+02
  0.000E+00  4.766E-01  1.013E+05  2.838E-12  1.362E-06  2.930E+02  2.948E+02
  0.000E+00  4.829E-01  1.013E+05  2.828E-12  1.244E-06  2.930E+02  2.946E+02
  0.000E+00  4.892E-01  1.013E+05  2.809E-12  1.116E-06  2.930E+02  2.945E+02
  0.000E+00  4.955E-01  1.013E+05  3.167E-12  1.270E-06  2.930E+02  2.944E+02
  0.000E+00  5.018E-01  1.013E+05  3.376E-12  1.182E-11  2.930E+02  2.944E+02
  0.000E+00  5.050E-01  1.013E+05  3.376E-12  1.182E-11  2.930E+02  2.944E+02
  6.203E-03  0.000E+00  1.013E+05  0.000E+00  0.000E+00  2.930E+02  2.930E+02
  6.203E-03  3.156E-03  1.013E+05 -5.053E-09  1.147E-04  2.930E+02  3.206E+02
  6.203E-03  9.469E-03  1.013E+05 -5.215E-09  6.375E-04  2.930E+02  3.759E+02
  6.203E-03  1.578E-02  1.013E+05 -5.277E-09  1.047E-03  2.930E+02  4.310E+02
  6.203E-03  2.209E-02  1.013E+05 -5.432E-09  1.506E-03  2.930E+02  4.858E+02
  6.203E-03  2.841E-02  1.013E+05 -5.603E-09  1.973E-03  2.930E+02  5.406E+02
  6.203E-03  3.472E-02  1.013E+05 -5.797E-09  2.463E-03  2.930E+02  5.952E+02
  6.203E-03  4.103E-02  1.013E+05 -5.987E-09  2.978E-03  2.930E+02  6.494E+02
  6.203E-03  4.734E-02  1.013E+05 -6.160E-09  3.523E-03  2.930E+02  7.034E+02
  6.203E-03  5.366E-02  1.013E+05 -6.272E-09  4.119E-03  2.930E+02  7.570E+02
  6.203E-03  5.997E-02  1.013E+05 -6.269E-09  4.754E-03  2.930E+02  8.102E+02
  6.203E-03  6.628E-02  1.013E+05 -6.113E-09  5.419E-03  2.930E+02  8.639E+02
  6.203E-03  7.259E-02  1.013E+05 -5.723E-09  6.140E-03  2.931E+02  9.195E+02
  6.203E-03  7.891E-02  1.013E+05 -4.871E-09  6.895E-03  2.935E+02  9.858E+02
  6.203E-03  8.522E-02  1.013E+05 -3.871E-09  7.555E-03  2.966E+02  1.106E+03
  6.203E-03  9.153E-02  1.013E+05 -4.153E-10  9.382E-03  3.156E+02  1.532E+03
  6.203E-03  9.784E-02  1.013E+05  3.034E-09  7.610E-03  2.966E+02  1.566E+03
  6.203E-03  1.042E-01  1.013E+05  3.997E-09  6.991E-03  2.935E+02  1.598E+03
  6.203E-03  1.105E-01  1.013E+05  4.775E-09  6.295E-03  2.931E+02  1.628E+03
  6.203E-03  1.168E-01  1.013E+05  5.084E-09  5.643E-03  2.930E+02  1.654E+03
  6.203E-03  1.231E-01  1.013E+05  5.144E-09  5.044E-03  2.930E+02  1.673E+03
  6.203E-03  1.294E-01  1.013E+05  5.046E-09  4.493E-03  2.930E+02  1.682E+03
  6.203E-03  1.357E-01  1.013E+05  4.846E-09  3.980E-03  2.930E+02  1.681E+03
  6.203E-03  1.420E-01  1.013E+05  4.561E-09  3.505E-03  2.930E+02  1.666E+03
  6.203E-03  1.483E-01  1.013E+05  4.225E-09  3.088E-03  2.930E+02  1.637E+03
  6.203E-03  1.547E-01  1.013E+05  3.892E-09  2.727E-03  2.930E+02  1.595E+03
  6.203E-03  1.610E-01  1.013E+05  3.572E-09  2.387E-03  2.930E+02  1.539E+03
  6.203E-03  1.673E-01  1.013E+05  3.236E-09  2.074E-03  2.930E+02  1.473E+03
  6.203E-03  1.736E-01  1.013E+05  2.900E-09  1.811E-03  2.930E+02  1.399E+03
  6.203E-03  1.799E-01  1.013E+05  2.594E-09  1.583E-03  2.930E+02  1.319E+03
  6.203E-03  1.862E-01  1.013E+05  2.312E-09  1.379E-03  2.930E+02  1.237E+03
  6.203E-03  1.925E-01  1.013E+05  2.054E-09  1.200E-03  2.930E+02  1.154E+03
  6.203E-03  1.988E-01  1.013E+05  1.821E-09  1.043E-03  2.930E+02  1.073E+03
  6.203E-03  2.052E-01  1.013E+05  1.610E-09  9.029E-04  2.930E+02  9.949E+02
  6.203E-03  2.115E-01  1.013E+05  1.412E-09  7.750E-04  2.930E+02  9.211E+02
  6.203E-03  2.178E-01  1.013E+05  1.225E-09  6.679E-04  2.930E+02  8.523E+02
  6.203E-03  2.241E-01  1.013E+05  1.067E-09  5.865E-04  2.930E+02  7.891E+02
  6.203E-03  2.304E-01  1.013E+05  9.450E-10  5.094E-04  2.930E+02  7.313E+02
  6.203E-03  2.367E-01  1.013E+05  8.304E-10  4.285E-04  2.930E+02  6.788E+02
  6.203E-03  2.430E-01  1.013E+05  7.081E-10  3.600E-04  2.930E+02  6.317E+02
  6.203E-03  2.493E-01  1.013E+05  5.975E-10  3.140E-04  2.930E+02  5.897E+02
  6.203E-03  2.557E-01  1.013E+05  5.129E-10  2.757E-04  2.930E+02  5.524E+02
  6.203E-03  2.620E-01  1.013E+05  4.428E-10  2.383E-04  2.930E+02  5.193E+02
  6.203E-03  2.683E-01  1.013E+05  3.855E-10  2.095E-04  2.930E+02  4.901E+02
  6.203E-03  2.746E-01  1.013E+05  3.422E-10  1.805E-04  2.930E+02  4.645E+02
  6.203E-03  2.809E-01  1.013E+05  3.006E-10  1.509E-04  2.930E+02  4.419E+02
  6.203E-03  2.872E-01  1.013E+05  2.589E-10  1.263E-04  2.930E+02  4.222E+02
  6.203E-03  2.935E-01  1.013E+05  2.194E-10  1.052E-04  2.930E+02  4.050E+02
  6.203E-03  2.998E-01  1.013E+05  1.792E-10  8.629E-05  2.930E+02  3.900E+02
  6.203E-03  3.062E-01  1.013E+05  1.402E-10  7.534E-05  2.930E+02  3.769E+02
  6.203E-03  3.125E-01  1.013E+05  1.163E-10  7.308E-05  2.930E+02  3.656E+02
  6.203E-03  3.188E-01  1.013E+05  1.076E-10  6.632E-05  2.930E+02  3.557E+02
  6.203E-03  3.251E-01  1.013E+05  1.001E-10  5.572E-05  2.930E+02  3.471E+02
  6.203E-03  3.314E-01  1.013E+05  9.428E-11  4.833E-05  2.930E+02  3.397E+02
  6.203E-03  3.377E-01  1.013E+05  9.056E-11  3.682E-05  2.930E+02  3.333E+02
  6.203E-03  3.440E-01  1.013E+05  7.232E-11  1.900E-05  2.930E+02  3.277E+02
  6.203E-03  3.503E-01  1.013E+05  4.129E-11  1.386E-05  2.930E+02  3.229E+02
  6.203E-03  3.567E-01  1.013E+05  2.533E-11  2.127E-05  2.930E+02  3.188E+02
  6.203E-03  3.630E-01  1.013E+05  2.550E-11  2.196E-05  2.930E+02  3.152E+02
  6.203E-03  3.693E-01  1.013E+05  2.539E-11  1.802E-05  2.930E+02  3.121E+02
  6.203E-03  3.756E-01  1.013E+05  2.306E-11  1.544E-05  2.930E+02  3.094E+02
  6.203E-03  3.819E-01  1.013E+05  2.069E-11  1.311E-05  2.930E+02  3.071E+02
  6.203E-03  3.882E-01  1.013E+05  1.817E-11  1.115E-05  2.930E+02  3.052E+02
  6.203E-03  3.945E-01  1.013E+05  1.600E-11  9.481E-06  2.930E+02  3.035E+02
  6.203E-03  4.008E-01  1.013E+05  1.424E-11  8.062E-06  2.930E+02  3.020E+02
  6.203E-03  4.072E-01  1.013E+05  1.279E-11  6.857E-06  2.930E+02  3.007E+02
  6.203E-03  4.135E-01  1.013E+05  1.164E-11  5.835E-06  2.930E+02  2.997E+02
  6.203E-03  4.198E-01  1.013E+05  1.054E-11  4.969E-06  2.930E+02  2.987E+02
  6.203E-03  4.261E-01  1.013E+05  9.375E-12  4.235E-06  2.930E+02  2.980E+02
  6.203E-03  4.324E-01  1.013E+05  8.138E-12  3.615E-06  2.930E+02  2.973E+02
  6.203E-03  4.387E-01  1.013E+05  6.974E-12  3.092E-06  2.930E+02  2.967E+02
  6.203E-03  4.450E-01  1.013E+05  5.774E-12  2.653E-06  2.930E+02  2.962E+02
  6.203E-03  4.513E-01  1.013E+05  4.777E-12  2.286E-06  2.930E+02  2.958E+02
  6.203E-03  4.577E-01  1.013E+05  3.871E-12  1.981E-06  2.930E+02  2.955E+02
  6.203E-03  4.640E-01  1.013E+05  3.333E-12  1.730E-06  2.930E+02  2.952E+02
  6.203E-03  4.703E-01  1.013E+05  3.006E-12  1.526E-06  2.930E+02  2.949E+02
  6.203E-03  4.766E-01  1.013E+05  2.838E-12  1.362E-06  2.930E+02  2.948E+02
  6.203E-03  4.829E-01  1.013E+05  2.828E-12  1.244E-06  2.930E+02  2.946E+02
  6.203E-03  4.892E-01  1.013E+05  2.809E-12  1.116E-06  2.930E+02  2.945E+02
  6.203E-03  4.955E-01  1.013E+05  3.167E-12  1.270E-06  2.930E+02  2.944E+02
  6.203E-03  5.018E-01  1.013E+05  3.376E-12  1.182E-11  2.930E+02  2.944E+02
  6.203E-03  5.050E-01  1.013E+05  0.000E+00  1.182E-11  2.930E+02  2.944E+02
  1.861E-02  0.000E+00  1.013E+05  0.000E+00  0.000E+00  2.930E+02  2.930E+02
  1.861E-02  3.156E-03  1.013E+05 -8.001E-09  1.147E-04  2.930E+02  3.206E+02
  1.861E-02  9.469E-03  1.013E+05 -8.185E-09  6.375E-04  2.930E+02  3.759E+02
  1.861E-02  1.578E-02  1.013E+05 -8.220E-09  1.047E-03  2.930E+02  4.310E+02
  1.861E-02  2.209E-02  1.013E+05 -8.330E-09  1.506E-03  2.930E+02  4.858E+02
  1.861E-02  2.841E-02  1.013E+05 -8.470E-09  1.973E-03  2.930E+02  5.406E+02
  1.861E-02  3.472E-02  1.013E+05 -8.654E-09  2.463E-03  2.930E+02  5.952E+02
  1.861E-02  4.103E-02  1.013E+05 -8.854E-09  2.978E-03  2.930E+02  6.494E+02
  1.861E-02  4.734E-02  1.013E+05 -9.038E-09  3.523E-03  2.930E+02  7.034E+02
  1.861E-02  5.366E-02  1.013E+05 -9.131E-09  4.119E-03  2.930E+02  7.570E+02
  1.861E-02  5.997E-02  1.013E+05 -9.047E-09  4.754E-03  2.930E+02  8.102E+02
  1.861E-02  6.628E-02  1.013E+05 -8.706E-09  5.419E-03  2.930E+02  8.639E+02
  1.861E-02  7.259E-02  1.013E+05 -7.997E-09  6.140E-03  2.931E+02  9.195E+02
  1.861E-02  7.891E-02  1.013E+05 -6.652E-09  6.895E-03  2.935E+02  9.858E+02
  1.861E-02  8.522E-02  1.013E+05 -4.988E-09  7.555E-03  2.966E+02  1.106E+03
  1.861E-02  9.153E-02  1.013E+05 -6.063E-10  9.382E-03  3.156E+02  1.532E+03
  1.861E-02  9.784E-02  1.013E+05  3.770E-09  7.610E-03  2.966E+02  1.566E+03
  1.861E-02  1.042E-01  1.013E+05  5.399E-09  6.991E-03  2.935E+02  1.598E+03
  1.861E-02  1.105E-01  1.013E+05  6.672E-09  6.295E-03  2.931E+02  1.628E+03
  1.861E-02  1.168E-01  1.013E+05  7.307E-09  5.643E-03  2.930E+02  1.654E+03
  1.861E-02  1.231E-01  1.013E+05  7.568E-09  5.044E-03  2.930E+02  1.673E+03
  1.861E-02  1.294E-01  1.013E+05  7.561E-09  4.493E-03  2.930E+02  1.682E+03
  1.861E-02  1.357E-01  1.013E+05  7.366E-09  3.980E-03  2.930E+02  1.681E+03
  1.861E-02  1.420E-01  1.013E+05  7.022E-09  3.505E-03  2.930E+02  1.666E+03
  1.861E-02  1.483E-01  1.013E+05  6.581E-09  3.088E-03  2.930E+02  1.637E+03
  1.861E-02  1.547E-01  1.013E+05  6.115E-09  2.727E-03  2.930E+02  1.595E+03
  1.861E-02  1.610E-01  1.013E+05  5.644E-09  2.387E-03  2.930E+02  1.539E+03
  1.861E-02  1.673E-01  1.013E+05  5.145E-09  2.074E-03  2.930E+02  1.473E+03
  1.861E-02  1.736E-01  1.013E+05  4.644E-09  1.811E-03  2.930E+02  1.399E+03
  1.861E-02  1.799E-01  1.013E+05  4.175E-09  1.583E-03  2.930E+02  1.319E+03
  1.861E-02  1.862E-01  1.013E+05  3.743E-09  1.379E-03  2.930E+02  1.237E+03
  1.861E-02  1.925E-01  1.013E+05  3.345E-09  1.200E-03  2.930E+02  1.154E+03
  1.861E-02  1.988E-01  1.013E+05  2.984E-09  1.043E-03  2.930E+02  1.073E+03
  1.861E-02  2.052E-01  1.013E+05  2.659E-09  9.029E-04  2.930E+02  9.949E+02
  1.861E-02  2.115E-01  1.013E+05  2.356E-09  7.750E-04  2.930E+02  9.211E+02
  1.861E-02  2.178E-01  1.013E+05  2.073E-09  6.679E-04  2.930E+02  8.523E+02
  1.861E-02  2.241E-01  1.013E+05  1.829E-09  5.865E-04  2.930E+02  7.891E+02
  1.861E-02  2.304E-01  1.013E+05  1.628E-09  5.094E-04  2.930E+02  7.313E+02
  1.861E-02  2.367E-01  1.013E+05  1.441E-09  4.285E-04  2.930E+02  6.788E+02
  1.861E-02  2.430E-01  1.013E+05  1.249E-09  3.600E-04  2.930E+02  6.317E+02
  1.861E-02  2.493E-01  1.013E+05  1.076E-09  3.140E-04  2.930E+02  5.897E+02
  1.861E-02  2.557E-01  1.013E+05  9.354E-10  2.757E-04  2.930E+02  5.524E+02
  1.861E-02  2.620E-01  1.013E+05  8.164E-10  2.383E-04  2.930E+02  5.193E+02
  1.861E-02  2.683E-01  1.013E+05  7.175E-10  2.095E-04  2.930E+02  4.901E+02
  1.861E-02  2.746E-01  1.013E+05  6.347E-10  1.805E-04  2.930E+02  4.645E+02
  1.861E-02  2.809E-01  1.013E+05  5.596E-10  1.509E-04  2.930E+02  4.419E+02
  1.861E-02  2.872E-01  1.013E+05  4.843E-10  1.263E-04  2.930E+02  4.222E+02
  1.861E-02  2.935E-01  1.013E+05  4.155E-10  1.052E-04  2.930E+02  4.050E+02
  1.861E-02  2.998E-01  1.013E+05  3.473E-10  8.629E-05  2.930E+02  3.900E+02
  1.861E-02  3.062E-01  1.013E+05  2.848E-10  7.534E-05  2.930E+02  3.769E+02
  1.861E-02  3.125E-01  1.013E+05  2.415E-10  7.308E-05  2.930E+02  3.656E+02
  1.861E-02  3.188E-01  1.013E+05  2.181E-10  6.632E-05  2.930E+02  3.557E+02
  1.861E-02  3.251E-01  1.013E+05  1.992E-10  5.572E-05  2.930E+02  3.471E+02
  1.861E-02  3.314E-01  1.013E+05  1.825E-10  4.833E-05  2.930E+02  3.397E+02
  1.861E-02  3.377E-01  1.013E+05  1.693E-10  3.682E-05  2.930E+02  3.333E+02
  1.861E-02  3.440E-01  1.013E+05  1.398E-10  1.900E-05  2.930E+02  3.277E+02
  1.861E-02  3.503E-01  1.013E+05  9.811E-11  1.386E-05  2.930E+02  3.229E+02
  1.861E-02  3.567E-01  1.013E+05  7.231E-11  2.127E-05  2.930E+02  3.188E+02
  1.861E-02  3.630E-01  1.013E+05  6.619E-11  2.196E-05  2.930E+02  3.152E+02
  1.861E-02  3.693E-01  1.013E+05  6.198E-11  1.802E-05  2.930E+02  3.121E+02
  1.861E-02  3.756E-01  1.013E+05  5.590E-11  1.544E-05  2.930E+02  3.094E+02
  1.861E-02  3.819E-01  1.013E+05  5.063E-11  1.311E-05  2.930E+02  3.071E+02
  1.861E-02  3.882E-01  1.013E+05  4.598E-11  1.115E-05  2.930E+02  3.052E+02
  1.861E-02  3.945E-01  1.013E+05  4.173E-11  9.481E-06  2.930E+02  3.035E+02
  1.861E-02  4.008E-01  1.013E+05  3.772E-11  8.062E-06  2.930E+02  3.020E+02
  1.861E-02  4.072E-01  1.013E+05  3.365E-11  6.857E-06  2.930E+02  3.007E+02
  1.861E-02  4.135E-01  1.013E+05  2.972E-11  5.835E-06  2.930E+02  2.997E+02
  1.861E-02  4.198E-01  1.013E+05  2.594E-11  4.969E-06  2.930E+02  2.987E+02
  1.861E-02  4.261E-01  1.013E+05  2.228E-11  4.235E-06  2.930E+02  2.980E+02
  1.861E-02  4.324E-01  1.013E+05  1.902E-11  3.615E-06  2.930E+02  2.973E+02
  1.861E-02  4.387E-01  1.013E+05  1.629E-11  3.092E-06  2.930E+02  2.967E+02
  1.861E-02  4.450E-01  1.013E+05  1.408E-11  2.653E-06  2.930E+02  2.962E+02
  1.861E-02  4.513E-01  1.013E+05  1.253E-11  2.286E-06  2.930E+02  2.958E+02
  1.861E-02  4.577E-01  1.013E+05  1.134E-11  1.981E-06  2.930E+02  2.955E+02
  1.861E-02  4.640E-01  1.013E+05  1.042E-11  1.730E-06  2.930E+02  2.952E+02
  1.861E-02  4.703E-01  1.013E+05  9.560E-12  1.526E-06  2.930E+02  2.949E+02
  1.861E-02  4.766E-01  1.013E+05  8.628E-12  1.362E-06  2.930E+02  2.948E+02
  1.861E-02  4.829E-01  1.013E+05  7.620E-12  1.244E-06  2.930E+02  2.946E+02
  1.861E-02  4.892E-01  1.013E+05  6.480E-12  1.116E-06  2.930E+02  2.945E+02
  1.861E-02  4.955E-01  1.013E+05  5.583E-12  1.270E-06  2.930E+02  2.944E+02
  1.861E-02  5.018E-01  1.013E+05  5.245E-12 -9.413E-13  2.930E+02  2.944E+02
  1.861E-02  5.050E-01  1.013E+05  0.000E+00 -9.413E-13  2.930E+02  2.944E+02
  3.102E-02  0.000E+00  1.013E+05  0.000E+00  0.000E+00  2.930E+02  2.930E+02
  3.102E-02  3.156E-03  1.013E+05 -4.884E-09  1.147E-04  2.930E+02  3.206E+02
  3.102E-02  9.469E-03  1.013E+05 -5.095E-09  6.375E-04  2.930E+02  3.759E+02
  3.102E-02  1.578E-02  1.013E+05 -5.198E-09  1.047E-03  2.930E+02  4.310E+02
  3.102E-02  2.209E-02  1.013E+05 -5.249E-09  1.506E-03  2.930E+02  4.858E+02
  3.102E-02  2.841E-02  1.013E+05 -5.271E-09  1.973E-03  2.930E+02  5.406E+02
  3.102E-02  3.472E-02  1.013E+05 -5.268E-09  2.463E-03  2.930E+02  5.952E+02
  3.102E-02  4.103E-02  1.013E+05 -5.236E-09  2.978E-03  2.930E+02  6.494E+02
  3.102E-02  4.734E-02  1.013E+05 -5.168E-09  3.523E-03  2.930E+02  7.034E+02
  3.102E-02  5.366E-02  1.013E+05 -5.028E-09  4.119E-03  2.930E+02  7.570E+02
  3.102E-02  5.997E-02  1.013E+05 -4.777E-09  4.754E-03  2.930E+02  8.102E+02
  3.102E-02  6.628E-02  1.013E+05 -4.364E-09  5.419E-03  2.930E+02  8.639E+02
  3.102E-02  7.259E-02  1.013E+05 -3.742E-09  6.140E-03  2.931E+02  9.195E+02
  3.102E-02  7.891E-02  1.013E+05 -2.866E-09  6.895E-03  2.935E+02  9.858E+02
  3.102E-02  8.522E-02  1.013E+05 -1.744E-09  7.555E-03  2.966E+02  1.106E+03
  3.102E-02  9.153E-02  1.013E+05 -2.663E-10  9.382E-03  3.156E+02  1.532E+03
  3.102E-02  9.784E-02  1.013E+05  1.203E-09  7.610E-03  2.966E+02  1.566E+03
  3.102E-02  1.042E-01  1.013E+05  2.307E-09  6.991E-03  2.935E+02  1.598E+03
  3.102E-02  1.105E-01  1.013E+05  3.148E-09  6.295E-03  2.931E+02  1.628E+03
  3.102E-02  1.168E-01  1.013E+05  3.714E-09  5.643E-03  2.930E+02  1.654E+03
  3.102E-02  1.231E-01  1.013E+05  4.059E-09  5.044E-03  2.930E+02  1.673E+03
  3.102E-02  1.294E-01  1.013E+05  4.220E-09  4.493E-03  2.930E+02  1.682E+03
  3.102E-02  1.357E-01  1.013E+05  4.242E-09  3.980E-03  2.930E+02  1.681E+03
  3.102E-02  1.420E-01  1.013E+05  4.156E-09  3.505E-03  2.930E+02  1.666E+03
  3.102E-02  1.483E-01  1.013E+05  3.995E-09  3.088E-03  2.930E+02  1.637E+03
  3.102E-02  1.547E-01  1.013E+05  3.785E-09  2.727E-03  2.930E+02  1.595E+03
  3.102E-02  1.610E-01  1.013E+05  3.544E-09  2.387E-03  2.930E+02  1.539E+03
  3.102E-02  1.673E-01  1.013E+05  3.281E-09  2.074E-03  2.930E+02  1.473E+03
  3.102E-02  1.736E-01  1.013E+05  3.013E-09  1.811E-03  2.930E+02  1.399E+03
  3.102E-02  1.799E-01  1.013E+05  2.746E-09  1.583E-03  2.930E+02  1.319E+03
  3.102E-02  1.862E-01  1.013E+05  2.491E-09  1.379E-03  2.930E+02  1.237E+03
  3.102E-02  1.925E-01  1.013E+05  2.250E-09  1.200E-03  2.930E+02  1.154E+03
  3.102E-02  1.988E-01  1.013E+05  2.021E-09  1.043E-03  2.930E+02  1.073E+03
  3.102E-02  2.052E-01  1.013E+05  1.809E-09  9.029E-04  2.930E+02  9.949E+02
  3.102E-02  2.115E-01  1.013E+05  1.610E-09  7.750E-04  2.930E+02  9.211E+02
  3.102E-02  2.178E-01  1.013E+05  1.425E-09  6.679E-04  2.930E+02  8.523E+02
  3.102E-02  2.241E-01  1.013E+05  1.256E-09  5.865E-04  2.930E+02  7.891E+02
  3.102E-02  2.304E-01  1.013E+05  1.103E-09  5.094E-04  2.930E+02  7.313E+02
  3.102E-02  2.367E-01  1.013E+05  9.651E-10  4.285E-04  2.930E+02  6.788E+02
  3.102E-02  2.430E-01  1.013E+05  8.381E-10  3.600E-04  2.930E+02  6.317E+02
  3.102E-02  2.493E-01  1.013E+05  7.255E-10  3.140E-04  2.930E+02  5.897E+02
  3.102E-02  2.557E-01  1.013E+05  6.291E-10  2.757E-04  2.930E+02  5.524E+02
  3.102E-02  2.620E-01  1.013E+05  5.443E-10  2.383E-04  2.930E+02  5.193E+02
  3.102E-02  2.683E-01  1.013E+05  4.745E-10  2.095E-04  2.930E+02  4.901E+02
  3.102E-02  2.746E-01  1.013E+05  4.104E-10  1.805E-04  2.930E+02  4.645E+02
  3.102E-02  2.809E-01  1.013E+05  3.565E-10  1.509E-04  2.930E+02  4.419E+02
  3.102E-02  2.872E-01  1.013E+05  3.044E-10  1.263E-04  2.930E+02  4.222E+02
  3.102E-02  2.935E-01  1.013E+05  2.597E-10  1.052E-04  2.930E+02  4.050E+02
  3.102E-02  2.998E-01  1.013E+05  2.181E-10  8.629E-05  2.930E+02  3.900E+02
  3.102E-02  3.062E-01  1.013E+05  1.831E-10  7.534E-05  2.930E+02  3.769E+02
  3.102E-02  3.125E-01  1.013E+05  1.556E-10  7.308E-05  2.930E+02  3.656E+02
  3.102E-02  3.188E-01  1.013E+05  1.347E-10  6.632E-05  2.930E+02  3.557E+02
  3.102E-02  3.251E-01  1.013E+05  1.187E-10  5.572E-05  2.930E+02  3.471E+02
  3.102E-02  3.314E-01  1.013E+05  1.036E-10  4.833E-05  2.930E+02  3.397E+02
  3.102E-02  3.377E-01  1.013E+05  9.124E-11  3.682E-05  2.930E+02  3.333E+02
  3.102E-02  3.440E-01  1.013E+05  7.599E-11  1.900E-05  2.930E+02  3.277E+02
  3.102E-02  3.503E-01  1.013E+05  6.165E-11  1.386E-05  2.930E+02  3.229E+02
  3.102E-02  3.567E-01  1.013E+05  4.968E-11  2.127E-05  2.930E+02  3.188E+02
  3.102E-02  3.630E-01  1.013E+05  4.163E-11  2.196E-05  2.930E+02  3.152E+02
  3.102E-02  3.693E-01  1.013E+05  3.675E-11  1.802E-05  2.930E+02  3.121E+02
  3.102E-02  3.756E-01  1.013E+05  3.309E-11  1.544E-05  2.930E+02  3.094E+02
  3.102E-02  3.819E-01  1.013E+05  3.049E-11  1.311E-05  2.930E+02  3.071E+02
  3.102E-02  3.882E-01  1.013E+05  2.862E-11  1.115E-05  2.930E+02  3.052E+02
  3.102E-02  3.945E-01  1.013E+05  2.674E-11  9.481E-06  2.930E+02  3.035E+02
  3.102E-02  4.008E-01  1.013E+05  2.473E-11  8.062E-06  2.930E+02  3.020E+02
  3.102E-02  4.072E-01  1.013E+05  2.232E-11  6.857E-06  2.930E+02  3.007E+02
  3.102E-02  4.135E-01  1.013E+05  1.974E-11  5.835E-06  2.930E+02  2.997E+02
  3.102E-02  4.198E-01  1.013E+05  1.714E-11  4.969E-06  2.930E+02  2.987E+02
  3.102E-02  4.261E-01  1.013E+05  1.485E-11  4.235E-06  2.930E+02  2.980E+02
  3.102E-02  4.324E-01  1.013E+05  1.293E-11  3.615E-06  2.930E+02  2.973E+02
  3.102E-02  4.387E-01  1.013E+05  1.162E-11  3.092E-06  2.930E+02  2.967E+02
  3.102E-02  4.450E-01  1.013E+05  1.082E-11  2.653E-06  2.930E+02  2.962E+02
  3.102E-02  4.513E-01  1.013E+05  1.051E-11  2.286E-06  2.930E+02  2.958E+02
  3.102E-02  4.577E-01  1.013E+05  1.031E-11  1.981E-06  2.930E+02  2.955E+02
  3.102E-02  4.640E-01  1.013E+05  1.007E-11  1.730E-06  2.930E+02  2.952E+02
  3.102E-02  4.703E-01  1.013E+05  9.602E-12  1.526E-06  2.930E+02  2.949E+02
  3.102E-02  4.766E-01  1.013E+05  8.804E-12  1.362E-06  2.930E+02  2.948E+02
  3.102E-02  4.829E-01  1.013E+05  7.692E-12  1.244E-06  2.930E+02  2.946E+02
  3.102E-02  4.892E-01  1.013E+05  6.322E-12  1.116E-06  2.930E+02  2.945E+02
  3.102E-02  4.955E-01  1.013E+05  4.468E-12  1.270E-06  2.930E+02  2.944E+02
  3.102E-02  5.018E-01  1.013E+05  3.611E-12 -9.741E-12  2.930E+02  2.944E+02
  3.102E-02  5.050E-01  1.013E+05  0.000E+00 -9.741E-12  2.930E+02  2.944E+02
  4.342E-02  0.000E+00  1.013E+05  0.000E+00  0.000E+00  2.930E+02  2.930E+02
  4.342E-02  3.156E-03  1.013E+05 -3.706E-09  1.147E-04  2.930E+02  3.206E+02
  4.342E-02  9.469E-03  1.013E+05 -3.603E-09  6.375E-04  2.930E+02  3.759E+02
  4.342E-02  1.578E-02  1.013E+05 -3.625E-09  1.047E-03  2.930E+02  4.310E+02
  4.342E-02  2.209E-02  1.013E+05 -3.664E-09  1.506E-03  2.930E+02  4.858E+02
  4.342E-02  2.841E-02  1.013E+05 -3.690E-09  1.973E-03  2.930E+02  5.406E+02
  4.342E-02  3.472E-02  1.013E+05 -3.681E-09  2.463E-03  2.930E+02  5.952E+02
  4.342E-02  4.103E-02  1.013E+05 -3.628E-09  2.978E-03  2.930E+02  6.494E+02
  4.342E-02  4.734E-02  1.013E+05 -3.533E-09  3.523E-03  2.930E+02  7.034E+02
  4.342E-02  5.366E-02  1.013E+05 -3.382E-09  4.119E-03  2.930E+02  7.570E+02
  4.342E-02  5.997E-02  1.013E+05 -3.163E-09  4.754E-03  2.930E+02  8.102E+02
  4.342E-02  6.628E-02  1.013E+05 -2.848E-09  5.419E-03  2.930E+02  8.639E+02
  4.342E-02  7.259E-02  1.013E+05 -2.418E-09  6.140E-03  2.931E+02  9.195E+02
  4.342E-02  7.891E-02  1.013E+05 -1.866E-09  6.895E-03  2.935E+02  9.858E+02
  4.342E-02  8.522E-02  1.013E+05 -1.202E-09  7.555E-03  2.966E+02  1.106E+03
  4.342E-02  9.153E-02  1.013E+05 -4.160E-10  9.382E-03  3.156E+02  1.532E+03
  4.342E-02  9.784E-02  1.013E+05  3.590E-10  7.610E-03  2.966E+02  1.566E+03
  4.342E-02  1.042E-01  1.013E+05  1.000E-09  6.991E-03  2.935E+02  1.598E+03
  4.342E-02  1.105E-01  1.013E+05  1.515E-09  6.295E-03  2.931E+02  1.628E+03
  4.342E-02  1.168E-01  1.013E+05  1.892E-09  5.643E-03  2.930E+02  1.654E+03
  4.342E-02  1.231E-01  1.013E+05  2.149E-09  5.044E-03  2.930E+02  1.673E+03
  4.342E-02  1.294E-01  1.013E+05  2.297E-09  4.493E-03  2.930E+02  1.682E+03
  4.342E-02  1.357E-01  1.013E+05  2.360E-09  3.980E-03  2.930E+02  1.681E+03
  4.342E-02  1.420E-01  1.013E+05  2.352E-09  3.505E-03  2.930E+02  1.666E+03
  4.342E-02  1.483E-01  1.013E+05  2.291E-09  3.088E-03  2.930E+02  1.637E+03
  4.342E-02  1.547E-01  1.013E+05  2.192E-09  2.727E-03  2.930E+02  1.595E+03
  4.342E-02  1.610E-01  1.013E+05  2.066E-09  2.387E-03  2.930E+02  1.539E+03
  4.342E-02  1.673E-01  1.013E+05  1.921E-09  2.074E-03  2.930E+02  1.473E+03
  4.342E-02  1.736E-01  1.013E+05  1.768E-09  1.811E-03  2.930E+02  1.399E+03
  4.342E-02  1.799E-01  1.013E+05  1.612E-09  1.583E-03  2.930E+02  1.319E+03
  4.342E-02  1.862E-01  1.013E+05  1.462E-09  1.379E-03  2.930E+02  1.237E+03
  4.342E-02  1.925E-01  1.013E+05  1.320E-09  1.200E-03  2.930E+02  1.154E+03
  4.342E-02  1.988E-01  1.013E+05  1.185E-09  1.043E-03  2.930E+02  1.073E+03
  4.342E-02  2.052E-01  1.013E+05  1.061E-09  9.029E-04  2.930E+02  9.949E+02
  4.342E-02  2.115E-01  1.013E+05  9.449E-10  7.750E-04  2.930E+02  9.211E+02
  4.342E-02  2.178E-01  1.013E+05  8.374E-10  6.679E-04  2.930E+02  8.523E+02
  4.342E-02  2.241E-01  1.013E+05  7.397E-10  5.865E-04  2.930E+02  7.891E+02
  4.342E-02  2.304E-01  1.013E+05  6.510E-10  5.094E-04  2.930E+02  7.313E+02
  4.342E-02  2.367E-01  1.013E+05  5.729E-10  4.285E-04  2.930E+02  6.788E+02
  4.342E-02  2.430E-01  1.013E+05  5.016E-10  3.600E-04  2.930E+02  6.317E+02
  4.342E-02  2.493E-01  1.013E+05  4.391E-10  3.140E-04  2.930E+02  5.897E+02
  4.342E-02  2.557E-01  1.013E+05  3.859E-10  2.757E-04  2.930E+02  5.524E+02
  4.342E-02  2.620E-01  1.013E+05  3.370E-10  2.383E-04  2.930E+02  5.193E+02
  4.342E-02  2.683E-01  1.013E+05  2.973E-10  2.095E-04  2.930E+02  4.901E+02
  4.342E-02  2.746E-01  1.013E+05  2.581E-10  1.805E-04  2.930E+02  4.645E+02
  4.342E-02  2.809E-01  1.013E+05  2.260E-10  1.509E-04  2.930E+02  4.419E+02
  4.342E-02  2.872E-01  1.013E+05  1.932E-10  1.263E-04  2.930E+02  4.222E+02
  4.342E-02  2.935E-01  1.013E+05  1.663E-10  1.052E-04  2.930E+02  4.050E+02
  4.342E-02  2.998E-01  1.013E+05  1.409E-10  8.629E-05  2.930E+02  3.900E+02
  4.342E-02  3.062E-01  1.013E+05  1.195E-10  7.534E-05  2.930E+02  3.769E+02
  4.342E-02  3.125E-01  1.013E+05  1.025E-10  7.308E-05  2.930E+02  3.656E+02
  4.342E-02  3.188E-01  1.013E+05  8.903E-11  6.632E-05  2.930E+02  3.557E+02
  4.342E-02  3.251E-01  1.013E+05  7.870E-11  5.572E-05  2.930E+02  3.471E+02
  4.342E-02  3.314E-01  1.013E+05  6.749E-11  4.833E-05  2.930E+02  3.397E+02
  4.342E-02  3.377E-01  1.013E+05  5.915E-11  3.682E-05  2.930E+02  3.333E+02